|===============================================================================
|
|  DFTB+ release 25.1
|
|  Copyright (C) 2006 - 2025  DFTB+ developers group
|
|===============================================================================
|
|  When publishing results obtained with DFTB+, please cite the following
|  reference:
|
|    Recent Developments in DFTB+, a Software Package for Efficient Atomistic
|    Quantum Mechanical Simulations, J. Phys. Chem. A 129, 5373−5390 (2025).
|    [https://doi.org/10.1021/acs.jpca.5c01146]
|
|  You should also cite additional publications crediting the parametrization
|  data you use. Please consult the documentation of the SK-files for the
|  references.
|
|===============================================================================

Reading input file 'dftb_in.hsd'
Parser version: 14

--------------------------------------------------------------------------------
Reading SK-files:
././N-N.skf
Done.


Processed input in HSD format written to 'dftb_pin.hsd'

Starting initialization...
--------------------------------------------------------------------------------
WARNING!
-> Dipole printed for extended system : value printed is not well defined
OpenMP threads:              4
Chosen random seed:          23704915
Current stacksize:           unlimited
Mode:                        MD with scaling of velocities according to
                             Nose-Hoover-Chain thermostat
Self consistent charges:     Yes
SCC-tolerance:                 0.100000E-05
Max. scc iterations:                    200
Shell resolved Hubbard:      No
Spin polarisation:           No
Nr. of up electrons:           270.000000
Nr. of down electrons:         270.000000
Periodic boundaries:         Yes
Electronic solver:           Relatively robust
Mixer:                       Broyden mixer
Mixing parameter:                  0.200000
Nr. of chrg. vec. in memory:            200
Max. SCC-cycles:                        200
Electronic temperature:              0.190009E-01 H      0.517041E+00 eV
Time step:                     0.206707E+02
Initial charges:             Set automatically (system chrg:   0.000E+00)
Included shells:             N:  s, p
K-points and weights:           1:  0.000000  0.000000  0.000000     1.000000

K-points in absolute space:     1:  0.000000  0.000000  0.000000

Using Lennard-Jones dispersion corrections
Extra options:
                             Mulliken analysis
Force type                   original

--------------------------------------------------------------------------------

***  Geometry step: 0

 iSCC Total electronic   Diff electronic      SCC error    
    1   -0.27480187E+03    0.00000000E+00    0.75597249E+00
    2   -0.27494747E+03   -0.27480187E+03    0.47484422E+00
    3   -0.27496424E+03   -0.14560518E+00    0.22536767E+00
    4   -0.27497431E+03   -0.16772504E-01    0.90262732E-01
    5   -0.27497450E+03   -0.10068673E-01    0.28748983E-01
    6   -0.27497409E+03   -0.18306784E-03    0.97251213E-02
    7   -0.27497426E+03    0.40795613E-03    0.27604882E-02
    8   -0.27497437E+03   -0.17054210E-03    0.13322717E-02
    9   -0.27497439E+03   -0.10785516E-03    0.43187482E-03
   10   -0.27497439E+03   -0.27020692E-04    0.13487680E-03
   11   -0.27497440E+03   -0.13629851E-05    0.37057358E-04
   12   -0.27497440E+03   -0.38930974E-05    0.16102424E-04
   13   -0.27497440E+03   -0.33888620E-06    0.67021064E-05
   14   -0.27497440E+03   -0.66987411E-07    0.32554597E-05
   15   -0.27497440E+03    0.34762922E-06    0.15920958E-05
   16   -0.27497440E+03   -0.71292902E-07    0.49678692E-06

Total Energy:                      -27.7609154132 H         -755.4129 eV
Extrapolated to 0K:                -27.8720197425 H         -758.4362 eV
Total Mermin free energy:          -27.9831240718 H         -761.4595 eV
Force related energy:              -27.9831240718 H         -761.4595 eV

Volume:                              0.678057E+04 au^3   0.100478E+04 A^3
>> Charges saved for restart in charges.bin
 TempProfile:           2   1.9000892071478339E-002
MD Temperature:                      0.0190008921 H         6000.0000 K
MD Kinetic Energy:                   3.0496431775 H           82.9850 eV
Total MD Energy:                   -24.9334808943 H         -678.4745 eV
Pressure:                            0.191742E-02 au     0.564124E+11 Pa
Gibbs free energy including KE:    -24.9334808943 H         -678.4745 eV

--------------------------------------------------------------------------------

***  Geometry step: 1

 iSCC Total electronic   Diff electronic      SCC error    
    1   -0.27483174E+03    0.00000000E+00    0.43776122E-01
    2   -0.27483402E+03    0.14265735E+00    0.26406585E-01
    3   -0.27483396E+03   -0.22746285E-02    0.14151760E-01
    4   -0.27483414E+03    0.54546453E-04    0.53503321E-02
    5   -0.27483416E+03   -0.18218776E-03    0.17850509E-02
    6   -0.27483418E+03   -0.17940724E-04    0.59269797E-03
    7   -0.27483418E+03   -0.18704859E-04    0.31065525E-03
    8   -0.27483418E+03   -0.36313661E-05    0.15089094E-03
    9   -0.27483418E+03    0.23314921E-05    0.53697626E-04
   10   -0.27483418E+03   -0.20130857E-05    0.23586329E-04
   11   -0.27483418E+03   -0.52259924E-06    0.54092392E-05
   12   -0.27483418E+03   -0.41398840E-06    0.15827719E-05
   13   -0.27483418E+03    0.11028925E-06    0.59904282E-06

Total Energy:                      -27.7511665426 H         -755.1477 eV
Extrapolated to 0K:                -27.8638143719 H         -758.2130 eV
Total Mermin free energy:          -27.9764622012 H         -761.2783 eV
Force related energy:              -27.9764622012 H         -761.2783 eV

Volume:                              0.678057E+04 au^3   0.100478E+04 A^3
 TempProfile:           3   1.9000892071478339E-002
MD Temperature:                      0.0189567765 H         5986.0694 K
MD Kinetic Energy:                   3.0425626318 H           82.7923 eV
Total MD Energy:                   -24.9338995694 H         -678.4859 eV
Pressure:                            0.188957E-02 au     0.555931E+11 Pa
Gibbs free energy including KE:    -24.9338995694 H         -678.4859 eV

--------------------------------------------------------------------------------

***  Geometry step: 2

 iSCC Total electronic   Diff electronic      SCC error    
    1   -0.27462398E+03    0.00000000E+00    0.40697577E-01
    2   -0.27462590E+03    0.21020286E+00    0.27769738E-01
    3   -0.27462577E+03   -0.19231207E-02    0.14783638E-01
    4   -0.27462590E+03    0.13774410E-03    0.59820948E-02
    5   -0.27462592E+03   -0.12853099E-03    0.20060117E-02
    6   -0.27462594E+03   -0.25457007E-04    0.47508757E-03
    7   -0.27462594E+03   -0.19837467E-04    0.21382478E-03
    8   -0.27462594E+03    0.39952192E-06    0.11307627E-03
    9   -0.27462594E+03    0.41832081E-05    0.47574605E-04
   10   -0.27462594E+03   -0.10774557E-05    0.24092125E-04
   11   -0.27462594E+03   -0.55493371E-06    0.73003369E-05
   12   -0.27462594E+03   -0.38635955E-06    0.20023678E-05
   13   -0.27462594E+03    0.83781345E-07    0.57799897E-06

Total Energy:                      -27.7537609628 H         -755.2183 eV
Extrapolated to 0K:                -27.8676783545 H         -758.3181 eV
Total Mermin free energy:          -27.9815957462 H         -761.4180 eV
Force related energy:              -27.9815957462 H         -761.4180 eV

Volume:                              0.678057E+04 au^3   0.100478E+04 A^3
 TempProfile:           4   1.9000892071478339E-002
MD Temperature:                      0.0189894928 H         5996.4004 K
MD Kinetic Energy:                   3.0478136006 H           82.9352 eV
Total MD Energy:                   -24.9337821456 H         -678.4827 eV
Pressure:                            0.185096E-02 au     0.544571E+11 Pa
Gibbs free energy including KE:    -24.9337821456 H         -678.4827 eV

--------------------------------------------------------------------------------

***  Geometry step: 3

 iSCC Total electronic   Diff electronic      SCC error    
    1   -0.27436180E+03    0.00000000E+00    0.52882902E-01
    2   -0.27436338E+03    0.26414197E+00    0.27994209E-01
    3   -0.27436321E+03   -0.15861388E-02    0.15019275E-01
    4   -0.27436329E+03    0.17595045E-03    0.62137059E-02
    5   -0.27436331E+03   -0.79110226E-04    0.20774031E-02
    6   -0.27436333E+03   -0.25149893E-04    0.46889153E-03
    7   -0.27436333E+03   -0.17975677E-04    0.21797422E-03
    8   -0.27436332E+03    0.19139175E-05    0.10246915E-03
    9   -0.27436332E+03    0.49037632E-05    0.49223823E-04
   10   -0.27436332E+03   -0.40931513E-06    0.27607963E-04
   11   -0.27436332E+03   -0.57218256E-06    0.85467449E-05
   12   -0.27436332E+03   -0.30071345E-06    0.21775314E-05
   13   -0.27436332E+03    0.49512266E-07    0.55461534E-06

Total Energy:                      -27.7676730889 H         -755.5968 eV
Extrapolated to 0K:                -27.8825956543 H         -758.7240 eV
Total Mermin free energy:          -27.9975182197 H         -761.8512 eV
Force related energy:              -27.9975182197 H         -761.8512 eV

Volume:                              0.678057E+04 au^3   0.100478E+04 A^3
 TempProfile:           5   1.9000892071478339E-002
MD Temperature:                      0.0190891282 H         6027.8627 K
MD Kinetic Energy:                   3.0638050732 H           83.3704 eV
Total MD Energy:                   -24.9337131465 H         -678.4809 eV
Pressure:                            0.180775E-02 au     0.531859E+11 Pa
Gibbs free energy including KE:    -24.9337131465 H         -678.4809 eV

--------------------------------------------------------------------------------

***  Geometry step: 4

 iSCC Total electronic   Diff electronic      SCC error    
    1   -0.27406237E+03    0.00000000E+00    0.60888497E-01
    2   -0.27406366E+03    0.30095531E+00    0.26983504E-01
    3   -0.27406350E+03   -0.12956516E-02    0.14722202E-01
    4   -0.27406353E+03    0.16423205E-03    0.62554267E-02
    5   -0.27406356E+03   -0.35843131E-04    0.19811109E-02
    6   -0.27406358E+03   -0.29218250E-04    0.53470815E-03
    7   -0.27406358E+03   -0.17206829E-04    0.25592848E-03
    8   -0.27406358E+03    0.69392394E-06    0.11444504E-03
    9   -0.27406358E+03    0.38442578E-05    0.59001735E-04
   10   -0.27406358E+03   -0.51917414E-06    0.27273834E-04
   11   -0.27406358E+03   -0.68202786E-06    0.92359982E-05
   12   -0.27406358E+03   -0.23349838E-06    0.22238088E-05
   13   -0.27406358E+03    0.25967324E-07    0.48133557E-06

Total Energy:                      -27.7918003472 H         -756.2534 eV
Extrapolated to 0K:                -27.9076146108 H         -759.4048 eV
Total Mermin free energy:          -28.0234288744 H         -762.5563 eV
Force related energy:              -28.0234288744 H         -762.5563 eV

Volume:                              0.678057E+04 au^3   0.100478E+04 A^3
 TempProfile:           6   1.9000892071478339E-002
MD Temperature:                      0.0192489294 H         6078.3239 K
MD Kinetic Energy:                   3.0894531632 H           84.0683 eV
Total MD Energy:                   -24.9339757112 H         -678.4880 eV
Pressure:                            0.175990E-02 au     0.517781E+11 Pa
Gibbs free energy including KE:    -24.9339757112 H         -678.4880 eV

--------------------------------------------------------------------------------

***  Geometry step: 5

 iSCC Total electronic   Diff electronic      SCC error    
    1   -0.27374621E+03    0.00000000E+00    0.64015587E-01
    2   -0.27374735E+03    0.31736945E+00    0.24781158E-01
    3   -0.27374729E+03   -0.11447660E-02    0.13801378E-01
    4   -0.27374731E+03    0.63284759E-04    0.56571979E-02
    5   -0.27374736E+03   -0.24782597E-04    0.17277613E-02
    6   -0.27374738E+03   -0.49363908E-04    0.60364782E-03
    7   -0.27374738E+03   -0.16892867E-04    0.30604196E-03
    8   -0.27374738E+03   -0.22352297E-05    0.11259121E-03
    9   -0.27374738E+03    0.14793376E-05    0.50889364E-04
   10   -0.27374738E+03   -0.10717575E-05    0.23780890E-04
   11   -0.27374738E+03   -0.68141338E-06    0.98401326E-05
   12   -0.27374738E+03   -0.12255845E-06    0.28380512E-05
   13   -0.27374738E+03    0.55314217E-07    0.60411070E-06

Total Energy:                      -27.8204969565 H         -757.0342 eV
Extrapolated to 0K:                -27.9372780643 H         -760.2120 eV
Total Mermin free energy:          -28.0540591721 H         -763.3898 eV
Force related energy:              -28.0540591721 H         -763.3898 eV

Volume:                              0.678057E+04 au^3   0.100478E+04 A^3
>> Charges saved for restart in charges.bin
 TempProfile:           7   1.9000892071478339E-002
MD Temperature:                      0.0194364785 H         6137.5471 K
MD Kinetic Energy:                   3.1195547936 H           84.8874 eV
Total MD Energy:                   -24.9345043785 H         -678.5024 eV
Pressure:                            0.170801E-02 au     0.502514E+11 Pa
Gibbs free energy including KE:    -24.9345043785 H         -678.5024 eV

--------------------------------------------------------------------------------

***  Geometry step: 6

 iSCC Total electronic   Diff electronic      SCC error    
    1   -0.27343611E+03    0.00000000E+00    0.62540405E-01
    2   -0.27343737E+03    0.31127212E+00    0.21671303E-01
    3   -0.27343750E+03   -0.12566357E-02    0.12343597E-01
    4   -0.27343758E+03   -0.13193449E-03    0.54979911E-02
    5   -0.27343763E+03   -0.82127918E-04    0.15638910E-02
    6   -0.27343763E+03   -0.45824795E-04    0.60238708E-03
    7   -0.27343763E+03   -0.24718660E-05    0.32430949E-03
    8   -0.27343763E+03   -0.31711646E-05    0.11757540E-03
    9   -0.27343763E+03    0.12111091E-05    0.47547326E-04
   10   -0.27343763E+03   -0.95236959E-06    0.17645478E-04
   11   -0.27343763E+03   -0.63001954E-06    0.87766259E-05
   12   -0.27343763E+03   -0.27376132E-07    0.29720934E-05
   13   -0.27343763E+03    0.66263055E-07    0.79985457E-06

Total Energy:                      -27.8451879227 H         -757.7061 eV
Extrapolated to 0K:                -27.9630703965 H         -760.9139 eV
Total Mermin free energy:          -28.0809528702 H         -764.1216 eV
Force related energy:              -28.0809528702 H         -764.1216 eV

Volume:                              0.678057E+04 au^3   0.100478E+04 A^3
 TempProfile:           8   1.9000892071478339E-002
MD Temperature:                      0.0196015335 H         6189.6673 K
MD Kinetic Energy:                   3.1460461338 H           85.6083 eV
Total MD Energy:                   -24.9349067364 H         -678.5133 eV
Pressure:                            0.165258E-02 au     0.486205E+11 Pa
Gibbs free energy including KE:    -24.9349067364 H         -678.5133 eV

--------------------------------------------------------------------------------

***  Geometry step: 7

 iSCC Total electronic   Diff electronic      SCC error    
    1   -0.27315482E+03    0.00000000E+00    0.58687077E-01
    2   -0.27315636E+03    0.28281466E+00    0.20176751E-01
    3   -0.27315666E+03   -0.15395656E-02    0.10655084E-01
    4   -0.27315682E+03   -0.29800539E-03    0.41682889E-02
    5   -0.27315681E+03   -0.16634283E-03    0.13003439E-02
    6   -0.27315682E+03    0.83737577E-05    0.68631978E-03
    7   -0.27315681E+03   -0.23403470E-05    0.28905014E-03
    8   -0.27315681E+03    0.79113585E-05    0.11586201E-03
    9   -0.27315681E+03    0.39661887E-06    0.47125583E-04
   10   -0.27315681E+03   -0.96876164E-06    0.13273148E-04
   11   -0.27315681E+03   -0.11193931E-05    0.69952223E-05
   12   -0.27315681E+03   -0.68461020E-07    0.31402368E-05
   13   -0.27315681E+03   -0.15055036E-07    0.96829944E-06

Total Energy:                      -27.8589548361 H         -758.0807 eV
Extrapolated to 0K:                -27.9780548495 H         -761.3216 eV
Total Mermin free energy:          -28.0971548630 H         -764.5625 eV
Force related energy:              -28.0971548630 H         -764.5625 eV

Volume:                              0.678057E+04 au^3   0.100478E+04 A^3
 TempProfile:           9   1.9000892071478339E-002
MD Temperature:                      0.0197015562 H         6221.2520 K
MD Kinetic Energy:                   3.1620997741 H           86.0451 eV
Total MD Energy:                   -24.9350550888 H         -678.5174 eV
Pressure:                            0.160283E-02 au     0.471567E+11 Pa
Gibbs free energy including KE:    -24.9350550888 H         -678.5174 eV

--------------------------------------------------------------------------------

***  Geometry step: 8

 iSCC Total electronic   Diff electronic      SCC error    
    1   -0.27292137E+03    0.00000000E+00    0.66689537E-01
    2   -0.27292309E+03    0.23544424E+00    0.20288246E-01
    3   -0.27292343E+03   -0.17260139E-02    0.99903616E-02
    4   -0.27292365E+03   -0.34068142E-03    0.39344860E-02
    5   -0.27292363E+03   -0.21973572E-03    0.27052883E-02
    6   -0.27292363E+03    0.20529763E-04    0.84049545E-03
    7   -0.27292362E+03    0.26280084E-05    0.25057335E-03
    8   -0.27292362E+03    0.12667185E-04    0.10981767E-03
    9   -0.27292362E+03   -0.89965420E-06    0.45480061E-04
   10   -0.27292362E+03   -0.16113747E-05    0.12917547E-04
   11   -0.27292362E+03   -0.13425105E-05    0.62939325E-05
   12   -0.27292362E+03   -0.72669309E-07    0.27779297E-05
   13   -0.27292362E+03   -0.10195492E-06    0.99660028E-06

Total Energy:                      -27.8589697212 H         -758.0811 eV
Extrapolated to 0K:                -27.9794418984 H         -761.3594 eV
Total Mermin free energy:          -28.0999140757 H         -764.6376 eV
Force related energy:              -28.0999140757 H         -764.6376 eV

Volume:                              0.678057E+04 au^3   0.100478E+04 A^3
 TempProfile:          10   1.9000892071478339E-002
MD Temperature:                      0.0197188286 H         6226.7061 K
MD Kinetic Energy:                   3.1648719879 H           86.1205 eV
Total MD Energy:                   -24.9350420879 H         -678.5170 eV
Pressure:                            0.156332E-02 au     0.459944E+11 Pa
Gibbs free energy including KE:    -24.9350420879 H         -678.5170 eV

--------------------------------------------------------------------------------

***  Geometry step: 9

 iSCC Total electronic   Diff electronic      SCC error    
    1   -0.27274917E+03    0.00000000E+00    0.72923466E-01
    2   -0.27275086E+03    0.17444985E+00    0.19720329E-01
    3   -0.27275115E+03   -0.16910410E-02    0.10343505E-01
    4   -0.27275140E+03   -0.28606315E-03    0.49787297E-02
    5   -0.27275140E+03   -0.25489366E-03    0.26987024E-02
    6   -0.27275140E+03    0.37054639E-05    0.74818311E-03
    7   -0.27275139E+03    0.18739156E-05    0.23508964E-03
    8   -0.27275139E+03    0.10153668E-04    0.10188449E-03
    9   -0.27275139E+03   -0.35260906E-05    0.41083085E-04
   10   -0.27275139E+03   -0.19887092E-05    0.12210973E-04
   11   -0.27275139E+03   -0.85839190E-06    0.62578665E-05
   12   -0.27275139E+03   -0.48324068E-07    0.22980961E-05
   13   -0.27275139E+03   -0.16200380E-06    0.75978631E-06

Total Energy:                      -27.8453652405 H         -757.7109 eV
Extrapolated to 0K:                -27.9674239859 H         -761.0323 eV
Total Mermin free energy:          -28.0894827314 H         -764.3537 eV
Force related energy:              -28.0894827314 H         -764.3537 eV

Volume:                              0.678057E+04 au^3   0.100478E+04 A^3
 TempProfile:          11   1.9000892071478339E-002
MD Temperature:                      0.0196540963 H         6206.2653 K
MD Kinetic Energy:                   3.1544824508 H           85.8378 eV
Total MD Energy:                   -24.9350002805 H         -678.5159 eV
Pressure:                            0.153557E-02 au     0.451780E+11 Pa
Gibbs free energy including KE:    -24.9350002805 H         -678.5159 eV

--------------------------------------------------------------------------------

***  Geometry step: 10

 iSCC Total electronic   Diff electronic      SCC error    
    1   -0.27264561E+03    0.00000000E+00    0.76969404E-01
    2   -0.27264709E+03    0.10578452E+00    0.20772118E-01
    3   -0.27264727E+03   -0.14758807E-02    0.12095521E-01
    4   -0.27264753E+03   -0.18370313E-03    0.53717457E-02
    5   -0.27264755E+03   -0.26433104E-03    0.23564829E-02
    6   -0.27264756E+03   -0.16170592E-04    0.66374475E-03
    7   -0.27264756E+03   -0.11347733E-04    0.23497987E-03
    8   -0.27264756E+03    0.62874702E-05    0.88441704E-04
    9   -0.27264756E+03   -0.52831651E-05    0.31882149E-04
   10   -0.27264756E+03   -0.19251298E-05    0.12224402E-04
   11   -0.27264756E+03   -0.23861219E-06    0.59503683E-05
   12   -0.27264756E+03   -0.24679252E-07    0.23519237E-05
   13   -0.27264756E+03   -0.15356261E-06    0.78343725E-06

Total Energy:                      -27.8195843145 H         -757.0094 eV
Extrapolated to 0K:                -27.9434025616 H         -760.3787 eV
Total Mermin free energy:          -28.0672208086 H         -763.7479 eV
Force related energy:              -28.0672208086 H         -763.7479 eV

Volume:                              0.678057E+04 au^3   0.100478E+04 A^3
>> Charges saved for restart in charges.bin
 TempProfile:          12   1.9000892071478339E-002
MD Temperature:                      0.0195150895 H         6162.3705 K
MD Kinetic Energy:                   3.1321718686 H           85.2307 eV
Total MD Energy:                   -24.9350489400 H         -678.5172 eV
Pressure:                            0.151976E-02 au     0.447130E+11 Pa
Gibbs free energy including KE:    -24.9350489400 H         -678.5172 eV

--------------------------------------------------------------------------------

***  Geometry step: 11

 iSCC Total electronic   Diff electronic      SCC error    
    1   -0.27261200E+03    0.00000000E+00    0.78526844E-01
    2   -0.27261317E+03    0.35561837E-01    0.22614548E-01
    3   -0.27261323E+03   -0.11670484E-02    0.13110387E-01
    4   -0.27261348E+03   -0.66360142E-04    0.54271301E-02
    5   -0.27261351E+03   -0.24312578E-03    0.20477515E-02
    6   -0.27261354E+03   -0.31594628E-04    0.65767958E-03
    7   -0.27261353E+03   -0.29510651E-04    0.21528991E-03
    8   -0.27261354E+03    0.59065689E-05    0.81270066E-04
    9   -0.27261354E+03   -0.53462367E-05    0.31224252E-04
   10   -0.27261354E+03   -0.17238081E-05    0.10612375E-04
   11   -0.27261354E+03   -0.55768282E-07    0.54839686E-05
   12   -0.27261354E+03   -0.75585490E-07    0.21167193E-05
   13   -0.27261354E+03   -0.10862709E-06    0.94038655E-06

Total Energy:                      -27.7834327710 H         -756.0257 eV
Extrapolated to 0K:                -27.9089678608 H         -759.4417 eV
Total Mermin free energy:          -28.0345029505 H         -762.8576 eV
Force related energy:              -28.0345029505 H         -762.8576 eV

Volume:                              0.678057E+04 au^3   0.100478E+04 A^3
 TempProfile:          13   1.9000892071478339E-002
MD Temperature:                      0.0193114029 H         6098.0515 K
MD Kinetic Energy:                   3.0994801716 H           84.3411 eV
Total MD Energy:                   -24.9350227790 H         -678.5165 eV
Pressure:                            0.151617E-02 au     0.446074E+11 Pa
Gibbs free energy including KE:    -24.9350227790 H         -678.5165 eV

--------------------------------------------------------------------------------

***  Geometry step: 12

 iSCC Total electronic   Diff electronic      SCC error    
    1   -0.27264394E+03    0.00000000E+00    0.77582790E-01
    2   -0.27264477E+03   -0.30398514E-01    0.28559961E-01
    3   -0.27264472E+03   -0.83083974E-03    0.13374657E-01
    4   -0.27264491E+03    0.47530670E-04    0.55880952E-02
    5   -0.27264496E+03   -0.19242440E-03    0.22131335E-02
    6   -0.27264500E+03   -0.44223679E-04    0.66413805E-03
    7   -0.27264500E+03   -0.44418741E-04    0.21491327E-03
    8   -0.27264500E+03    0.64040553E-05    0.80140301E-04
    9   -0.27264500E+03   -0.33737106E-05    0.38406334E-04
   10   -0.27264500E+03   -0.14612413E-05    0.14899683E-04
   11   -0.27264500E+03   -0.42989353E-06    0.58269514E-05
   12   -0.27264500E+03   -0.74277011E-07    0.20647444E-05
   13   -0.27264500E+03   -0.45907541E-07    0.97796603E-06

Total Energy:                      -27.7401782098 H         -754.8487 eV
Extrapolated to 0K:                -27.8670466184 H         -758.3009 eV
Total Mermin free energy:          -27.9939150269 H         -761.7532 eV
Force related energy:              -27.9939150269 H         -761.7532 eV

Volume:                              0.678057E+04 au^3   0.100478E+04 A^3
 TempProfile:          14   1.9000892071478339E-002
MD Temperature:                      0.0190595442 H         6018.5209 K
MD Kinetic Energy:                   3.0590568450 H           83.2412 eV
Total MD Energy:                   -24.9348581819 H         -678.5120 eV
Pressure:                            0.152355E-02 au     0.448242E+11 Pa
Gibbs free energy including KE:    -24.9348581819 H         -678.5120 eV

--------------------------------------------------------------------------------

***  Geometry step: 13

 iSCC Total electronic   Diff electronic      SCC error    
    1   -0.27273178E+03    0.00000000E+00    0.74521991E-01
    2   -0.27273229E+03   -0.86781781E-01    0.33493425E-01
    3   -0.27273214E+03   -0.50682580E-03    0.13052172E-01
    4   -0.27273226E+03    0.15148089E-03    0.57096262E-02
    5   -0.27273231E+03   -0.11669778E-03    0.24362417E-02
    6   -0.27273236E+03   -0.58154768E-04    0.79863633E-03
    7   -0.27273236E+03   -0.50670270E-04    0.19939221E-03
    8   -0.27273236E+03    0.56208058E-05    0.77293170E-04
    9   -0.27273236E+03   -0.16506562E-05    0.38476696E-04
   10   -0.27273236E+03   -0.53575258E-06    0.16378835E-04
   11   -0.27273236E+03   -0.56578966E-06    0.57191141E-05
   12   -0.27273236E+03   -0.88593936E-07    0.18460306E-05
   13   -0.27273236E+03    0.36383597E-07    0.86812658E-06

Total Energy:                      -27.6956838050 H         -753.6379 eV
Extrapolated to 0K:                -27.8231570735 H         -757.1066 eV
Total Mermin free energy:          -27.9506303420 H         -760.5753 eV
Force related energy:              -27.9506303420 H         -760.5753 eV

Volume:                              0.678057E+04 au^3   0.100478E+04 A^3
 TempProfile:          15   1.9000892071478339E-002
MD Temperature:                      0.0187921785 H         5934.0935 K
MD Kinetic Energy:                   3.0161446470 H           82.0735 eV
Total MD Energy:                   -24.9344856949 H         -678.5019 eV
Pressure:                            0.154112E-02 au     0.453412E+11 Pa
Gibbs free energy including KE:    -24.9344856949 H         -678.5019 eV

--------------------------------------------------------------------------------

***  Geometry step: 14

 iSCC Total electronic   Diff electronic      SCC error    
    1   -0.27286191E+03    0.00000000E+00    0.70131571E-01
    2   -0.27286213E+03   -0.12954915E+00    0.36833783E-01
    3   -0.27286189E+03   -0.22351445E-03    0.13376950E-01
    4   -0.27286191E+03    0.24690237E-03    0.56458820E-02
    5   -0.27286199E+03   -0.26076642E-04    0.23868726E-02
    6   -0.27286203E+03   -0.73883403E-04    0.88097101E-03
    7   -0.27286203E+03   -0.46741279E-04    0.20489690E-03
    8   -0.27286203E+03    0.38155148E-05    0.69737140E-04
    9   -0.27286203E+03   -0.35818579E-06    0.31499788E-04
   10   -0.27286203E+03    0.37473285E-07    0.14224274E-04
   11   -0.27286203E+03   -0.46817269E-06    0.51270678E-05
   12   -0.27286203E+03    0.89277705E-08    0.14163303E-05
   13   -0.27286203E+03    0.93963990E-07    0.64945574E-06

Total Energy:                      -27.6586300783 H         -752.6296 eV
Extrapolated to 0K:                -27.7857221724 H         -756.0880 eV
Total Mermin free energy:          -27.9128142664 H         -759.5463 eV
Force related energy:              -27.9128142664 H         -759.5463 eV

Volume:                              0.678057E+04 au^3   0.100478E+04 A^3
 TempProfile:          16   1.9000892071478339E-002
MD Temperature:                      0.0185593031 H         5860.5574 K
MD Kinetic Energy:                   2.9787681453 H           81.0564 eV
Total MD Energy:                   -24.9340461211 H         -678.4899 eV
Pressure:                            0.156722E-02 au     0.461093E+11 Pa
Gibbs free energy including KE:    -24.9340461211 H         -678.4899 eV

--------------------------------------------------------------------------------

***  Geometry step: 15

 iSCC Total electronic   Diff electronic      SCC error    
    1   -0.27301902E+03    0.00000000E+00    0.65291250E-01
    2   -0.27301903E+03   -0.15699104E+00    0.38515301E-01
    3   -0.27301870E+03   -0.61989965E-05    0.14698404E-01
    4   -0.27301863E+03    0.33041901E-03    0.57234155E-02
    5   -0.27301872E+03    0.67071556E-04    0.21288426E-02
    6   -0.27301875E+03   -0.84900500E-04    0.83982065E-03
    7   -0.27301875E+03   -0.35524824E-04    0.27327141E-03
    8   -0.27301875E+03    0.19050538E-05    0.76594944E-04
    9   -0.27301875E+03    0.68024690E-06    0.27844023E-04
   10   -0.27301875E+03    0.52085511E-07    0.15007734E-04
   11   -0.27301875E+03   -0.30616144E-06    0.54936531E-05
   12   -0.27301875E+03    0.15883512E-06    0.11884447E-05
   13   -0.27301875E+03    0.13100583E-06    0.46708861E-06

Total Energy:                      -27.6386435571 H         -752.0858 eV
Extrapolated to 0K:                -27.7642477620 H         -755.5036 eV
Total Mermin free energy:          -27.8898519668 H         -758.9215 eV
Force related energy:              -27.8898519668 H         -758.9215 eV

Volume:                              0.678057E+04 au^3   0.100478E+04 A^3
>> Charges saved for restart in charges.bin
 TempProfile:          17   1.9000892071478339E-002
MD Temperature:                      0.0184183889 H         5816.0603 K
MD Kinetic Energy:                   2.9561514243 H           80.4410 eV
Total MD Energy:                   -24.9337005425 H         -678.4805 eV
Pressure:                            0.159772E-02 au     0.470066E+11 Pa
Gibbs free energy including KE:    -24.9337005425 H         -678.4805 eV

--------------------------------------------------------------------------------

***  Geometry step: 16

 iSCC Total electronic   Diff electronic      SCC error    
    1   -0.27318905E+03    0.00000000E+00    0.60648321E-01
    2   -0.27318892E+03   -0.17029955E+00    0.38827925E-01
    3   -0.27318854E+03    0.13012486E-03    0.15853894E-01
    4   -0.27318838E+03    0.38305424E-03    0.62184363E-02
    5   -0.27318846E+03    0.15444988E-03    0.17489596E-02
    6   -0.27318849E+03   -0.83744167E-04    0.77799203E-03
    7   -0.27318849E+03   -0.21471975E-04    0.33601784E-03
    8   -0.27318848E+03    0.50331602E-06    0.86046151E-04
    9   -0.27318848E+03    0.17549474E-05    0.24779735E-04
   10   -0.27318848E+03   -0.12322033E-06    0.10756897E-04
   11   -0.27318848E+03   -0.67134408E-07    0.44075021E-05
   12   -0.27318848E+03    0.28212804E-06    0.92977347E-06

Total Energy:                      -27.6433181557 H         -752.2130 eV
Extrapolated to 0K:                -27.7663534378 H         -755.5609 eV
Total Mermin free energy:          -27.8893887199 H         -758.9089 eV
Force related energy:              -27.8893887199 H         -758.9089 eV

Volume:                              0.678057E+04 au^3   0.100478E+04 A^3
 TempProfile:          18   1.9000892071478339E-002
MD Temperature:                      0.0184157770 H         5815.2355 K
MD Kinetic Energy:                   2.9557322012 H           80.4296 eV
Total MD Energy:                   -24.9336565188 H         -678.4793 eV
Pressure:                            0.162978E-02 au     0.479497E+11 Pa
Gibbs free energy including KE:    -24.9336565188 H         -678.4793 eV

--------------------------------------------------------------------------------

***  Geometry step: 17

 iSCC Total electronic   Diff electronic      SCC error    
    1   -0.27336119E+03    0.00000000E+00    0.56402183E-01
    2   -0.27336100E+03   -0.17270337E+00    0.38102038E-01
    3   -0.27336062E+03    0.18904885E-03    0.16666748E-01
    4   -0.27336039E+03    0.38212046E-03    0.66600298E-02
    5   -0.27336046E+03    0.22687072E-03    0.16814776E-02
    6   -0.27336047E+03   -0.71911055E-04    0.73564586E-03
    7   -0.27336047E+03   -0.53403937E-05    0.35349271E-03
    8   -0.27336046E+03   -0.68976135E-07    0.92212983E-04
    9   -0.27336046E+03    0.30090107E-05    0.31819176E-04
   10   -0.27336046E+03   -0.78494168E-07    0.98842133E-05
   11   -0.27336046E+03    0.21312394E-06    0.41653011E-05
   12   -0.27336046E+03    0.15868613E-06    0.10872025E-05
   13   -0.27336046E+03    0.15134566E-06    0.47566715E-06

Total Energy:                      -27.6752881043 H         -753.0829 eV
Extrapolated to 0K:                -27.7948383838 H         -756.3360 eV
Total Mermin free energy:          -27.9143886633 H         -759.5892 eV
Force related energy:              -27.9143886633 H         -759.5892 eV

Volume:                              0.678057E+04 au^3   0.100478E+04 A^3
 TempProfile:          19   1.9000892071478339E-002
MD Temperature:                      0.0185699685 H         5863.9253 K
MD Kinetic Energy:                   2.9804799399 H           81.1030 eV
Total MD Energy:                   -24.9339087234 H         -678.4862 eV
Pressure:                            0.166123E-02 au     0.488752E+11 Pa
Gibbs free energy including KE:    -24.9339087234 H         -678.4862 eV

--------------------------------------------------------------------------------

***  Geometry step: 18

 iSCC Total electronic   Diff electronic      SCC error    
    1   -0.27352916E+03    0.00000000E+00    0.52408697E-01
    2   -0.27352898E+03   -0.16870233E+00    0.36549194E-01
    3   -0.27352865E+03    0.18886185E-03    0.16935587E-01
    4   -0.27352838E+03    0.32578749E-03    0.69285021E-02
    5   -0.27352844E+03    0.26606039E-03    0.16439776E-02
    6   -0.27352843E+03   -0.57708358E-04    0.67078958E-03
    7   -0.27352843E+03    0.12342680E-04    0.31870172E-03
    8   -0.27352843E+03    0.21014358E-06    0.96718907E-04
    9   -0.27352843E+03    0.39970551E-05    0.38968801E-04
   10   -0.27352842E+03    0.16819752E-06    0.10218471E-04
   11   -0.27352842E+03    0.36951724E-06    0.41346530E-05
   12   -0.27352842E+03    0.94535039E-07    0.12735812E-05
   13   -0.27352842E+03    0.13936375E-06    0.50054031E-06

Total Energy:                      -27.7319708831 H         -754.6253 eV
Extrapolated to 0K:                -27.8474055470 H         -757.7665 eV
Total Mermin free energy:          -27.9628402109 H         -760.9076 eV
Force related energy:              -27.9628402109 H         -760.9076 eV

Volume:                              0.678057E+04 au^3   0.100478E+04 A^3
 TempProfile:          20   1.9000892071478339E-002
MD Temperature:                      0.0188689195 H         5958.3264 K
MD Kinetic Energy:                   3.0284615770 H           82.4086 eV
Total MD Energy:                   -24.9343786338 H         -678.4990 eV
Pressure:                            0.168894E-02 au     0.496903E+11 Pa
Gibbs free energy including KE:    -24.9343786338 H         -678.4990 eV

--------------------------------------------------------------------------------

***  Geometry step: 19

 iSCC Total electronic   Diff electronic      SCC error    
    1   -0.27369190E+03    0.00000000E+00    0.48432465E-01
    2   -0.27369175E+03   -0.16347110E+00    0.34292165E-01
    3   -0.27369151E+03    0.14703109E-03    0.16501551E-01
    4   -0.27369125E+03    0.23798264E-03    0.69340904E-02
    5   -0.27369130E+03    0.25777178E-03    0.17621477E-02
    6   -0.27369128E+03   -0.49180988E-04    0.59213757E-03
    7   -0.27369128E+03    0.25883355E-04    0.25109949E-03
    8   -0.27369127E+03    0.91485936E-06    0.90874964E-04
    9   -0.27369127E+03    0.40919760E-05    0.37939893E-04
   10   -0.27369127E+03    0.33301978E-06    0.84565467E-05
   11   -0.27369127E+03    0.53283122E-06    0.42057836E-05
   12   -0.27369127E+03    0.21059009E-07    0.17014558E-05
   13   -0.27369127E+03    0.95115070E-07    0.49235214E-06

Total Energy:                      -27.8067773805 H         -756.6609 eV
Extrapolated to 0K:                -27.9178380753 H         -759.6830 eV
Total Mermin free energy:          -28.0288987701 H         -762.7051 eV
Force related energy:              -28.0288987701 H         -762.7051 eV

Volume:                              0.678057E+04 au^3   0.100478E+04 A^3
 TempProfile:          21   1.9000892071478339E-002
MD Temperature:                      0.0192766443 H         6087.0756 K
MD Kinetic Energy:                   3.0939014148 H           84.1893 eV
Total MD Energy:                   -24.9349973553 H         -678.5158 eV
Pressure:                            0.171266E-02 au     0.503883E+11 Pa
Gibbs free energy including KE:    -24.9349973553 H         -678.5158 eV

--------------------------------------------------------------------------------

***  Geometry step: 20

 iSCC Total electronic   Diff electronic      SCC error    
    1   -0.27385281E+03    0.00000000E+00    0.44745361E-01
    2   -0.27385274E+03   -0.16153757E+00    0.31409557E-01
    3   -0.27385259E+03    0.66395009E-04    0.15362993E-01
    4   -0.27385238E+03    0.14988701E-03    0.66626254E-02
    5   -0.27385243E+03    0.21033049E-03    0.18363846E-02
    6   -0.27385240E+03   -0.47786178E-04    0.50252229E-03
    7   -0.27385240E+03    0.29532486E-04    0.18736754E-03
    8   -0.27385240E+03    0.10605658E-05    0.78260047E-04
    9   -0.27385239E+03    0.30519629E-05    0.28222846E-04
   10   -0.27385239E+03    0.64675692E-06    0.75763791E-05
   11   -0.27385239E+03    0.43504582E-06    0.41682020E-05
   12   -0.27385239E+03   -0.46481034E-07    0.18472594E-05
   13   -0.27385239E+03    0.86853333E-07    0.58825484E-06

Total Energy:                      -27.8901651040 H         -758.9300 eV
Extrapolated to 0K:                -27.9969974756 H         -761.8371 eV
Total Mermin free energy:          -28.1038298471 H         -764.7441 eV
Force related energy:              -28.1038298471 H         -764.7441 eV

Volume:                              0.678057E+04 au^3   0.100478E+04 A^3
>> Charges saved for restart in charges.bin
 TempProfile:          22   1.9000892071478339E-002
MD Temperature:                      0.0197385585 H         6232.9363 K
MD Kinetic Energy:                   3.1680386318 H           86.2067 eV
Total MD Energy:                   -24.9357912153 H         -678.5374 eV
Pressure:                            0.173340E-02 au     0.509985E+11 Pa
Gibbs free energy including KE:    -24.9357912153 H         -678.5374 eV

--------------------------------------------------------------------------------

***  Geometry step: 21

 iSCC Total electronic   Diff electronic      SCC error    
    1   -0.27401802E+03    0.00000000E+00    0.45461366E-01
    2   -0.27401809E+03   -0.16563008E+00    0.27849622E-01
    3   -0.27401801E+03   -0.68054671E-04    0.13636396E-01
    4   -0.27401787E+03    0.78516980E-04    0.61351649E-02
    5   -0.27401792E+03    0.14015679E-03    0.18246742E-02
    6   -0.27401789E+03   -0.46147146E-04    0.40111168E-03
    7   -0.27401789E+03    0.26099550E-04    0.16047598E-03
    8   -0.27401789E+03   -0.93080263E-06    0.70509876E-04
    9   -0.27401789E+03    0.28703466E-05    0.24054508E-04
   10   -0.27401789E+03    0.82539145E-07    0.87475705E-05
   11   -0.27401789E+03    0.48199445E-06    0.44505069E-05
   12   -0.27401789E+03   -0.64004496E-07    0.17397374E-05
   13   -0.27401789E+03    0.44639080E-07    0.65735892E-06

Total Energy:                      -27.9696114921 H         -761.0919 eV
Extrapolated to 0K:                -28.0727205558 H         -763.8976 eV
Total Mermin free energy:          -28.1758296196 H         -766.7033 eV
Force related energy:              -28.1758296196 H         -766.7033 eV

Volume:                              0.678057E+04 au^3   0.100478E+04 A^3
 TempProfile:          23   1.9000892071478339E-002
MD Temperature:                      0.0201800703 H         6372.3546 K
MD Kinetic Energy:                   3.2389012773 H           88.1350 eV
Total MD Energy:                   -24.9369283423 H         -678.5683 eV
Pressure:                            0.175224E-02 au     0.515526E+11 Pa
Gibbs free energy including KE:    -24.9369283423 H         -678.5683 eV

--------------------------------------------------------------------------------

***  Geometry step: 22

 iSCC Total electronic   Diff electronic      SCC error    
    1   -0.27419361E+03    0.00000000E+00    0.43487364E-01
    2   -0.27419389E+03   -0.17571872E+00    0.23347005E-01
    3   -0.27419387E+03   -0.28337729E-03    0.11456680E-01
    4   -0.27419383E+03    0.19474960E-04    0.52531033E-02
    5   -0.27419386E+03    0.48384339E-04    0.17013894E-02
    6   -0.27419384E+03   -0.34831039E-04    0.41542688E-03
    7   -0.27419384E+03    0.21571397E-04    0.19142992E-03
    8   -0.27419384E+03   -0.50322521E-05    0.78687035E-04
    9   -0.27419384E+03    0.34416537E-05    0.30723000E-04
   10   -0.27419384E+03    0.62362290E-07    0.13810996E-04
   11   -0.27419384E+03    0.28041393E-06    0.33687263E-05
   12   -0.27419384E+03   -0.51159986E-07    0.15861728E-05
   13   -0.27419384E+03    0.73606543E-08    0.63034552E-06

Total Energy:                      -28.0290254458 H         -762.7086 eV
Extrapolated to 0K:                -28.1291770427 H         -765.4339 eV
Total Mermin free energy:          -28.2293286396 H         -768.1591 eV
Force related energy:              -28.2293286396 H         -768.1591 eV

Volume:                              0.678057E+04 au^3   0.100478E+04 A^3
 TempProfile:          24   1.9000892071478339E-002
MD Temperature:                      0.0205061900 H         6475.3349 K
MD Kinetic Energy:                   3.2912435011 H           89.5593 eV
Total MD Energy:                   -24.9380851385 H         -678.5998 eV
Pressure:                            0.177174E-02 au     0.521263E+11 Pa
Gibbs free energy including KE:    -24.9380851385 H         -678.5998 eV

--------------------------------------------------------------------------------

***  Geometry step: 23

 iSCC Total electronic   Diff electronic      SCC error    
    1   -0.27438182E+03    0.00000000E+00    0.39224796E-01
    2   -0.27438243E+03   -0.18798035E+00    0.21690958E-01
    3   -0.27438247E+03   -0.61345637E-03    0.11354452E-01
    4   -0.27438253E+03   -0.36934980E-04    0.47295882E-02
    5   -0.27438254E+03   -0.61412076E-04    0.14121368E-02
    6   -0.27438253E+03   -0.77202906E-05    0.47491716E-03
    7   -0.27438253E+03    0.13987115E-04    0.24389013E-03
    8   -0.27438253E+03   -0.68845738E-05    0.82098241E-04
    9   -0.27438253E+03    0.27701136E-05    0.34595783E-04
   10   -0.27438253E+03   -0.25778724E-06    0.15606746E-04
   11   -0.27438253E+03    0.18141066E-06    0.32484317E-05
   12   -0.27438253E+03   -0.11298562E-06    0.14965507E-05
   13   -0.27438253E+03   -0.20110576E-07    0.62130764E-06

Total Energy:                      -28.0528414052 H         -763.3567 eV
Extrapolated to 0K:                -28.1509671241 H         -766.0268 eV
Total Mermin free energy:          -28.2490928429 H         -768.6969 eV
Force related energy:              -28.2490928429 H         -768.6969 eV

Volume:                              0.678057E+04 au^3   0.100478E+04 A^3
 TempProfile:          25   1.9000892071478339E-002
MD Temperature:                      0.0206242599 H         6512.6184 K
MD Kinetic Energy:                   3.3101937120 H           90.0750 eV
Total MD Energy:                   -24.9388991309 H         -678.6220 eV
Pressure:                            0.179555E-02 au     0.528270E+11 Pa
Gibbs free energy including KE:    -24.9388991309 H         -678.6220 eV

--------------------------------------------------------------------------------

***  Geometry step: 24

 iSCC Total electronic   Diff electronic      SCC error    
    1   -0.27457722E+03    0.00000000E+00    0.33318363E-01
    2   -0.27457831E+03   -0.19469085E+00    0.21397920E-01
    3   -0.27457840E+03   -0.10889755E-02    0.12167488E-01
    4   -0.27457854E+03   -0.86128855E-04    0.47618459E-02
    5   -0.27457853E+03   -0.14016489E-03    0.15432973E-02
    6   -0.27457853E+03    0.65740531E-05    0.50782841E-03
    7   -0.27457853E+03   -0.65764857E-06    0.24158325E-03
    8   -0.27457853E+03   -0.44413066E-05    0.79374534E-04
    9   -0.27457853E+03    0.12261370E-05    0.32706070E-04
   10   -0.27457853E+03   -0.28577057E-06    0.14838188E-04
   11   -0.27457853E+03   -0.11300699E-07    0.36077962E-05
   12   -0.27457853E+03   -0.15119059E-06    0.14670386E-05
   13   -0.27457853E+03   -0.46295327E-07    0.54522877E-06

Total Energy:                      -28.0325558091 H         -762.8047 eV
Extrapolated to 0K:                -28.1296702635 H         -765.4473 eV
Total Mermin free energy:          -28.2267847179 H         -768.0899 eV
Force related energy:              -28.2267847179 H         -768.0899 eV

Volume:                              0.678057E+04 au^3   0.100478E+04 A^3
 TempProfile:          26   1.9000892071478339E-002
MD Temperature:                      0.0204856646 H         6468.8535 K
MD Kinetic Energy:                   3.2879491647 H           89.4696 eV
Total MD Energy:                   -24.9388355532 H         -678.6202 eV
Pressure:                            0.182426E-02 au     0.536715E+11 Pa
Gibbs free energy including KE:    -24.9388355532 H         -678.6202 eV

--------------------------------------------------------------------------------

***  Geometry step: 25

 iSCC Total electronic   Diff electronic      SCC error    
    1   -0.27476462E+03    0.00000000E+00    0.43304046E-01
    2   -0.27476636E+03   -0.18608916E+00    0.23667330E-01
    3   -0.27476648E+03   -0.17387883E-02    0.13060934E-01
    4   -0.27476666E+03   -0.11949994E-03    0.45806605E-02
    5   -0.27476666E+03   -0.18061326E-03    0.16134874E-02
    6   -0.27476667E+03    0.78487778E-06    0.41240938E-03
    7   -0.27476667E+03   -0.70518888E-05    0.16392832E-03
    8   -0.27476667E+03   -0.22834648E-05    0.70914263E-04
    9   -0.27476667E+03   -0.77753424E-06    0.28085252E-04
   10   -0.27476667E+03    0.10728394E-06    0.11696378E-04
   11   -0.27476667E+03   -0.34450392E-06    0.42521621E-05
   12   -0.27476667E+03   -0.12368713E-06    0.16422474E-05
   13   -0.27476667E+03   -0.90938158E-07    0.70433716E-06

Total Energy:                      -27.9740521492 H         -761.2127 eV
Extrapolated to 0K:                -28.0711532818 H         -763.8549 eV
Total Mermin free energy:          -28.1682544144 H         -766.4972 eV
Force related energy:              -28.1682544144 H         -766.4972 eV

Volume:                              0.678057E+04 au^3   0.100478E+04 A^3
>> Charges saved for restart in charges.bin
 TempProfile:          27   1.9000892071478339E-002
MD Temperature:                      0.0201270910 H         6355.6251 K
MD Kinetic Energy:                   3.2303981123 H           87.9036 eV
Total MD Energy:                   -24.9378563020 H         -678.5936 eV
Pressure:                            0.185354E-02 au     0.545329E+11 Pa
Gibbs free energy including KE:    -24.9378563020 H         -678.5936 eV

--------------------------------------------------------------------------------

***  Geometry step: 26

 iSCC Total electronic   Diff electronic      SCC error    
    1   -0.27492187E+03    0.00000000E+00    0.58845432E-01
    2   -0.27492449E+03   -0.15520195E+00    0.23946002E-01
    3   -0.27492462E+03   -0.26186364E-02    0.13352263E-01
    4   -0.27492483E+03   -0.13080023E-03    0.40389576E-02
    5   -0.27492484E+03   -0.21022629E-03    0.15722828E-02
    6   -0.27492483E+03   -0.33338919E-05    0.69166341E-03
    7   -0.27492484E+03    0.19653543E-05    0.22530720E-03
    8   -0.27492485E+03   -0.87544043E-05    0.95392611E-04
    9   -0.27492485E+03   -0.30165002E-05    0.22758206E-04
   10   -0.27492485E+03    0.76937056E-06    0.11952456E-04
   11   -0.27492485E+03   -0.80702756E-06    0.53033258E-05
   12   -0.27492485E+03   -0.98126407E-07    0.16687810E-05
   13   -0.27492485E+03   -0.93222070E-07    0.76568546E-06

Total Energy:                      -27.8965321975 H         -759.1033 eV
Extrapolated to 0K:                -27.9944761977 H         -761.7685 eV
Total Mermin free energy:          -28.0924201980 H         -764.4336 eV
Force related energy:              -28.0924201980 H         -764.4336 eV

Volume:                              0.678057E+04 au^3   0.100478E+04 A^3
 TempProfile:          28   1.9000892071478339E-002
MD Temperature:                      0.0196617228 H         6208.6736 K
MD Kinetic Energy:                   3.1557065117 H           85.8711 eV
Total MD Energy:                   -24.9367136863 H         -678.5625 eV
Pressure:                            0.188248E-02 au     0.553846E+11 Pa
Gibbs free energy including KE:    -24.9367136863 H         -678.5625 eV

--------------------------------------------------------------------------------

***  Geometry step: 27

 iSCC Total electronic   Diff electronic      SCC error    
    1   -0.27502428E+03    0.00000000E+00    0.75398699E-01
    2   -0.27502798E+03   -0.99428574E-01    0.19948911E-01
    3   -0.27502807E+03   -0.37035238E-02    0.12418332E-01
    4   -0.27502829E+03   -0.93713837E-04    0.31593704E-02
    5   -0.27502831E+03   -0.22028783E-03    0.15487664E-02
    6   -0.27502830E+03   -0.17278345E-04    0.73505414E-03
    7   -0.27502831E+03    0.11363812E-04    0.22188586E-03
    8   -0.27502831E+03   -0.10506668E-04    0.10690034E-03
    9   -0.27502831E+03   -0.44840380E-05    0.33241324E-04
   10   -0.27502831E+03    0.84880776E-06    0.13170010E-04
   11   -0.27502831E+03   -0.71481639E-06    0.54573466E-05
   12   -0.27502831E+03   -0.17007130E-06    0.16547272E-05
   13   -0.27502831E+03   -0.97525231E-07    0.77241559E-06

Total Energy:                      -27.8237438400 H         -757.1226 eV
Extrapolated to 0K:                -27.9231288738 H         -759.8270 eV
Total Mermin free energy:          -28.0225139076 H         -762.5314 eV
Force related energy:              -28.0225139076 H         -762.5314 eV

Volume:                              0.678057E+04 au^3   0.100478E+04 A^3
 TempProfile:          29   1.9000892071478339E-002
MD Temperature:                      0.0192313958 H         6072.7872 K
MD Kinetic Energy:                   3.0866390242 H           83.9917 eV
Total MD Energy:                   -24.9358748834 H         -678.5397 eV
Pressure:                            0.190642E-02 au     0.560889E+11 Pa
Gibbs free energy including KE:    -24.9358748834 H         -678.5397 eV

--------------------------------------------------------------------------------

***  Geometry step: 28

 iSCC Total electronic   Diff electronic      SCC error    
    1   -0.27505144E+03    0.00000000E+00    0.89049131E-01
    2   -0.27505616E+03   -0.23130060E-01    0.14820165E-01
    3   -0.27505617E+03   -0.47188053E-02    0.10492915E-01
    4   -0.27505637E+03   -0.58803722E-05    0.37089222E-02
    5   -0.27505641E+03   -0.20527213E-03    0.17716111E-02
    6   -0.27505639E+03   -0.33161027E-04    0.83849890E-03
    7   -0.27505640E+03    0.13474020E-04    0.25157895E-03
    8   -0.27505641E+03   -0.88144943E-05    0.10904731E-03
    9   -0.27505641E+03   -0.47099862E-05    0.39510067E-04
   10   -0.27505641E+03    0.25206560E-06    0.12938393E-04
   11   -0.27505641E+03   -0.48057871E-06    0.55515330E-05
   12   -0.27505641E+03   -0.37517964E-07    0.19525150E-05
   13   -0.27505641E+03   -0.15316300E-06    0.80353648E-06

Total Energy:                      -27.7748028925 H         -755.7908 eV
Extrapolated to 0K:                -27.8759190787 H         -758.5424 eV
Total Mermin free energy:          -27.9770352650 H         -761.2939 eV
Force related energy:              -27.9770352650 H         -761.2939 eV

Volume:                              0.678057E+04 au^3   0.100478E+04 A^3
 TempProfile:          30   1.9000892071478339E-002
MD Temperature:                      0.0189485905 H         5983.4845 K
MD Kinetic Energy:                   3.0412487712 H           82.7566 eV
Total MD Energy:                   -24.9357864938 H         -678.5373 eV
Pressure:                            0.191578E-02 au     0.563641E+11 Pa
Gibbs free energy including KE:    -24.9357864938 H         -678.5373 eV

--------------------------------------------------------------------------------

***  Geometry step: 29

 iSCC Total electronic   Diff electronic      SCC error    
    1   -0.27499327E+03    0.00000000E+00    0.97618519E-01
    2   -0.27499858E+03    0.63141194E-01    0.16808576E-01
    3   -0.27499849E+03   -0.53134294E-02    0.11541297E-01
    4   -0.27499866E+03    0.88689232E-04    0.47089943E-02
    5   -0.27499871E+03   -0.17307635E-03    0.21022154E-02
    6   -0.27499870E+03   -0.42257345E-04    0.90912129E-03
    7   -0.27499870E+03    0.10770728E-04    0.27044145E-03
    8   -0.27499871E+03   -0.60403743E-05    0.10263212E-03
    9   -0.27499871E+03   -0.39223835E-05    0.34837128E-04
   10   -0.27499871E+03    0.82026588E-07    0.11873600E-04
   11   -0.27499871E+03   -0.19099826E-06    0.55671013E-05
   12   -0.27499871E+03    0.61183414E-08    0.17156155E-05
   13   -0.27499871E+03   -0.10920166E-06    0.74762387E-06

Total Energy:                      -27.7576930813 H         -755.3253 eV
Extrapolated to 0K:                -27.8605486537 H         -758.1241 eV
Total Mermin free energy:          -27.9634042261 H         -760.9229 eV
Force related energy:              -27.9634042261 H         -760.9229 eV

Volume:                              0.678057E+04 au^3   0.100478E+04 A^3
 TempProfile:          31   1.9000892071478339E-002
MD Temperature:                      0.0188614283 H         5955.9609 K
MD Kinetic Energy:                   3.0272592478 H           82.3759 eV
Total MD Energy:                   -24.9361449783 H         -678.5470 eV
Pressure:                            0.190679E-02 au     0.560996E+11 Pa
Gibbs free energy including KE:    -24.9361449783 H         -678.5470 eV

--------------------------------------------------------------------------------

***  Geometry step: 30

 iSCC Total electronic   Diff electronic      SCC error    
    1   -0.27485128E+03    0.00000000E+00    0.10115195E+00
    2   -0.27485663E+03    0.14742223E+00    0.17891287E-01
    3   -0.27485648E+03   -0.53465700E-02    0.12802908E-01
    4   -0.27485661E+03    0.15452261E-03    0.52700215E-02
    5   -0.27485665E+03   -0.13004872E-03    0.22398574E-02
    6   -0.27485664E+03   -0.44123251E-04    0.87202528E-03
    7   -0.27485665E+03    0.69518890E-05    0.27356442E-03
    8   -0.27485665E+03   -0.29893097E-05    0.11847524E-03
    9   -0.27485665E+03   -0.26339281E-05    0.29681350E-04
   10   -0.27485665E+03    0.15154876E-06    0.10542491E-04
   11   -0.27485665E+03    0.85586919E-07    0.47761822E-05
   12   -0.27485665E+03   -0.13157376E-07    0.11978857E-05
   13   -0.27485665E+03    0.68268946E-10    0.56858471E-06

Total Energy:                      -27.7715612505 H         -755.7026 eV
Extrapolated to 0K:                -27.8759616976 H         -758.5435 eV
Total Mermin free energy:          -27.9803621447 H         -761.3844 eV
Force related energy:              -27.9803621447 H         -761.3844 eV

Volume:                              0.678057E+04 au^3   0.100478E+04 A^3
>> Charges saved for restart in charges.bin
 TempProfile:          32   1.9000892071478339E-002
MD Temperature:                      0.0189614150 H         5987.5341 K
MD Kinetic Energy:                   3.0433071007 H           82.8126 eV
Total MD Energy:                   -24.9370550441 H         -678.5718 eV
Pressure:                            0.187896E-02 au     0.552809E+11 Pa
Gibbs free energy including KE:    -24.9370550441 H         -678.5718 eV

--------------------------------------------------------------------------------

***  Geometry step: 31

 iSCC Total electronic   Diff electronic      SCC error    
    1   -0.27463858E+03    0.00000000E+00    0.10071265E+00
    2   -0.27464349E+03    0.21806728E+00    0.18257150E-01
    3   -0.27464330E+03   -0.49084548E-02    0.13108278E-01
    4   -0.27464338E+03    0.18601371E-03    0.54353724E-02
    5   -0.27464342E+03   -0.78892400E-04    0.21663569E-02
    6   -0.27464342E+03   -0.42619014E-04    0.78142600E-03
    7   -0.27464342E+03    0.30204677E-05    0.27064566E-03
    8   -0.27464342E+03    0.69684154E-06    0.12387602E-03
    9   -0.27464342E+03   -0.16189974E-05    0.29832489E-04
   10   -0.27464342E+03    0.13856004E-06    0.12302183E-04
   11   -0.27464342E+03    0.27355270E-06    0.46402724E-05
   12   -0.27464342E+03   -0.92380617E-07    0.18711245E-05
   13   -0.27464342E+03    0.79514280E-07    0.64023787E-06

Total Energy:                      -27.8078181365 H         -756.6892 eV
Extrapolated to 0K:                -27.9134842268 H         -759.5646 eV
Total Mermin free energy:          -28.0191503171 H         -762.4399 eV
Force related energy:              -28.0191503171 H         -762.4399 eV

Volume:                              0.678057E+04 au^3   0.100478E+04 A^3
 TempProfile:          33   1.9000892071478339E-002
MD Temperature:                      0.0191975101 H         6062.0870 K
MD Kinetic Energy:                   3.0812003737 H           83.8437 eV
Total MD Energy:                   -24.9379499434 H         -678.5961 eV
Pressure:                            0.183799E-02 au     0.540755E+11 Pa
Gibbs free energy including KE:    -24.9379499434 H         -678.5961 eV

--------------------------------------------------------------------------------

***  Geometry step: 32

 iSCC Total electronic   Diff electronic      SCC error    
    1   -0.27437627E+03    0.00000000E+00    0.97490170E-01
    2   -0.27438047E+03    0.26715032E+00    0.20667114E-01
    3   -0.27438028E+03   -0.41947676E-02    0.14013527E-01
    4   -0.27438031E+03    0.18958509E-03    0.53088390E-02
    5   -0.27438035E+03   -0.28015308E-04    0.26053184E-02
    6   -0.27438035E+03   -0.43510686E-04    0.70172705E-03
    7   -0.27438034E+03   -0.42615636E-06    0.22489316E-03
    8   -0.27438035E+03    0.59489464E-05    0.11957932E-03
    9   -0.27438035E+03   -0.23125302E-05    0.35824553E-04
   10   -0.27438034E+03    0.37860474E-06    0.13585774E-04
   11   -0.27438034E+03    0.38485467E-06    0.63112688E-05
   12   -0.27438034E+03   -0.18103754E-06    0.20238172E-05
   13   -0.27438034E+03    0.72207229E-07    0.78988707E-06

Total Energy:                      -27.8546998849 H         -757.9649 eV
Extrapolated to 0K:                -27.9614192145 H         -760.8689 eV
Total Mermin free energy:          -28.0681385440 H         -763.7729 eV
Force related energy:              -28.0681385440 H         -763.7729 eV

Volume:                              0.678057E+04 au^3   0.100478E+04 A^3
 TempProfile:          34   1.9000892071478339E-002
MD Temperature:                      0.0194952996 H         6156.1214 K
MD Kinetic Energy:                   3.1289955908 H           85.1443 eV
Total MD Energy:                   -24.9391429532 H         -678.6286 eV
Pressure:                            0.179091E-02 au     0.526904E+11 Pa
Gibbs free energy including KE:    -24.9391429532 H         -678.6286 eV

--------------------------------------------------------------------------------

***  Geometry step: 33

 iSCC Total electronic   Diff electronic      SCC error    
    1   -0.27408917E+03    0.00000000E+00    0.92240732E-01
    2   -0.27409257E+03    0.29117451E+00    0.22825879E-01
    3   -0.27409240E+03   -0.34015264E-02    0.15631534E-01
    4   -0.27409241E+03    0.16750869E-03    0.49810875E-02
    5   -0.27409246E+03   -0.10726925E-05    0.32477618E-02
    6   -0.27409246E+03   -0.52663426E-04    0.69351133E-03
    7   -0.27409245E+03   -0.18825355E-05    0.21641521E-03
    8   -0.27409245E+03    0.99792322E-05    0.10757855E-03
    9   -0.27409245E+03   -0.21299638E-05    0.38188461E-04
   10   -0.27409245E+03    0.97011088E-06    0.14171008E-04
   11   -0.27409245E+03   -0.35701163E-06    0.69680734E-05
   12   -0.27409245E+03   -0.30173453E-07    0.27880171E-05
   13   -0.27409245E+03    0.51161237E-07    0.92091917E-06

Total Energy:                      -27.8970500783 H         -759.1174 eV
Extrapolated to 0K:                -28.0048297418 H         -762.0502 eV
Total Mermin free energy:          -28.1126094053 H         -764.9830 eV
Force related energy:              -28.1126094053 H         -764.9830 eV

Volume:                              0.678057E+04 au^3   0.100478E+04 A^3
 TempProfile:          35   1.9000892071478339E-002
MD Temperature:                      0.0197653295 H         6241.3899 K
MD Kinetic Energy:                   3.1723353797 H           86.3236 eV
Total MD Energy:                   -24.9402740255 H         -678.6594 eV
Pressure:                            0.174247E-02 au     0.512653E+11 Pa
Gibbs free energy including KE:    -24.9402740255 H         -678.6594 eV

--------------------------------------------------------------------------------

***  Geometry step: 34

 iSCC Total electronic   Diff electronic      SCC error    
    1   -0.27380227E+03    0.00000000E+00    0.85159587E-01
    2   -0.27380498E+03    0.29018395E+00    0.22601751E-01
    3   -0.27380487E+03   -0.27134103E-02    0.16658206E-01
    4   -0.27380489E+03    0.11571172E-03    0.53257745E-02
    5   -0.27380496E+03   -0.27610934E-04    0.36595703E-02
    6   -0.27380496E+03   -0.70421621E-04    0.85227368E-03
    7   -0.27380495E+03    0.26913600E-05    0.23679397E-03
    8   -0.27380495E+03    0.11043851E-04    0.11212231E-03
    9   -0.27380495E+03    0.49096928E-06    0.33957200E-04
   10   -0.27380495E+03    0.87736282E-07    0.15405284E-04
   11   -0.27380495E+03   -0.46012184E-06    0.68325491E-05
   12   -0.27380495E+03    0.11064668E-06    0.30831537E-05
   13   -0.27380495E+03    0.25936743E-07    0.91515468E-06

Total Energy:                      -27.9210666486 H         -759.7709 eV
Extrapolated to 0K:                -28.0302003395 H         -762.7406 eV
Total Mermin free energy:          -28.1393340303 H         -765.7102 eV
Force related energy:              -28.1393340303 H         -765.7102 eV

Volume:                              0.678057E+04 au^3   0.100478E+04 A^3
 TempProfile:          36   1.9000892071478339E-002
MD Temperature:                      0.0199281806 H         6292.8142 K
MD Kinetic Energy:                   3.1984729880 H           87.0349 eV
Total MD Energy:                   -24.9408610423 H         -678.6754 eV
Pressure:                            0.169580E-02 au     0.498921E+11 Pa
Gibbs free energy including KE:    -24.9408610423 H         -678.6754 eV

--------------------------------------------------------------------------------

***  Geometry step: 35

 iSCC Total electronic   Diff electronic      SCC error    
    1   -0.27353676E+03    0.00000000E+00    0.76275025E-01
    2   -0.27353905E+03    0.26818868E+00    0.22109143E-01
    3   -0.27353900E+03   -0.22866939E-02    0.16824662E-01
    4   -0.27353910E+03    0.45297464E-04    0.63000120E-02
    5   -0.27353917E+03   -0.94743531E-04    0.33220595E-02
    6   -0.27353916E+03   -0.77667454E-04    0.95587039E-03
    7   -0.27353915E+03    0.12487089E-04    0.28860877E-03
    8   -0.27353915E+03    0.81525048E-05    0.11424377E-03
    9   -0.27353915E+03    0.24464136E-05    0.36682556E-04
   10   -0.27353915E+03   -0.59404897E-06    0.13809845E-04
   11   -0.27353915E+03   -0.32175262E-06    0.69808209E-05
   12   -0.27353915E+03    0.47010644E-08    0.32659063E-05
   13   -0.27353915E+03    0.10262568E-07    0.92570863E-06

Total Energy:                      -27.9209167662 H         -759.7668 eV
Extrapolated to 0K:                -28.0319282866 H         -762.7876 eV
Total Mermin free energy:          -28.1429398070 H         -765.8084 eV
Force related energy:              -28.1429398070 H         -765.8084 eV

Volume:                              0.678057E+04 au^3   0.100478E+04 A^3
>> Charges saved for restart in charges.bin
 TempProfile:          37   1.9000892071478339E-002
MD Temperature:                      0.0199497947 H         6299.6394 K
MD Kinetic Energy:                   3.2019420500 H           87.1293 eV
Total MD Energy:                   -24.9409977570 H         -678.6791 eV
Pressure:                            0.165534E-02 au     0.487018E+11 Pa
Gibbs free energy including KE:    -24.9409977570 H         -678.6791 eV

--------------------------------------------------------------------------------

***  Geometry step: 36

 iSCC Total electronic   Diff electronic      SCC error    
    1   -0.27330736E+03    0.00000000E+00    0.65872028E-01
    2   -0.27330950E+03    0.23178825E+00    0.22896412E-01
    3   -0.27330951E+03   -0.21340510E-02    0.16013658E-01
    4   -0.27330965E+03   -0.75018201E-05    0.74779354E-02
    5   -0.27330972E+03   -0.14895027E-03    0.25982868E-02
    6   -0.27330970E+03   -0.61641246E-04    0.94471931E-03
    7   -0.27330970E+03    0.15533018E-04    0.34206533E-03
    8   -0.27330970E+03   -0.66506124E-06    0.10933982E-03
    9   -0.27330970E+03    0.23749832E-05    0.40410350E-04
   10   -0.27330970E+03   -0.91074151E-06    0.16050569E-04
   11   -0.27330970E+03   -0.37790073E-06    0.65244548E-05
   12   -0.27330970E+03   -0.12445901E-06    0.31634154E-05
   13   -0.27330970E+03    0.11525628E-07    0.11197430E-05
   14   -0.27330970E+03    0.11813540E-07    0.48131635E-06

Total Energy:                      -27.8986576960 H         -759.1611 eV
Extrapolated to 0K:                -28.0122119498 H         -762.2511 eV
Total Mermin free energy:          -28.1257662036 H         -765.3410 eV
Force related energy:              -28.1257662036 H         -765.3410 eV

Volume:                              0.678057E+04 au^3   0.100478E+04 A^3
 TempProfile:          38   1.9000892071478339E-002
MD Temperature:                      0.0198434536 H         6266.0596 K
MD Kinetic Energy:                   3.1848742999 H           86.6648 eV
Total MD Energy:                   -24.9408919037 H         -678.6762 eV
Pressure:                            0.162206E-02 au     0.477227E+11 Pa
Gibbs free energy including KE:    -24.9408919037 H         -678.6762 eV

--------------------------------------------------------------------------------

***  Geometry step: 37

 iSCC Total electronic   Diff electronic      SCC error    
    1   -0.27312245E+03    0.00000000E+00    0.54361961E-01
    2   -0.27312457E+03    0.18725184E+00    0.25760523E-01
    3   -0.27312461E+03   -0.21209472E-02    0.14387119E-01
    4   -0.27312479E+03   -0.37874272E-04    0.83124288E-02
    5   -0.27312483E+03   -0.18283019E-03    0.19522050E-02
    6   -0.27312482E+03   -0.40548186E-04    0.97231380E-03
    7   -0.27312483E+03    0.73391191E-05    0.38485857E-03
    8   -0.27312483E+03   -0.93192336E-05    0.13461263E-03
    9   -0.27312483E+03   -0.98719340E-07    0.44428726E-04
   10   -0.27312483E+03   -0.72125158E-06    0.16431106E-04
   11   -0.27312483E+03   -0.48509548E-06    0.58533236E-05
   12   -0.27312483E+03   -0.15271036E-06    0.26893779E-05
   13   -0.27312483E+03    0.36105121E-07    0.13873137E-05
   14   -0.27312483E+03    0.55052851E-08    0.51039681E-06

Total Energy:                      -27.8606795725 H         -758.1277 eV
Extrapolated to 0K:                -27.9774941646 H         -761.3064 eV
Total Mermin free energy:          -28.0943087567 H         -764.4850 eV
Force related energy:              -28.0943087567 H         -764.4850 eV

Volume:                              0.678057E+04 au^3   0.100478E+04 A^3
 TempProfile:          39   1.9000892071478339E-002
MD Temperature:                      0.0196477832 H         6204.2718 K
MD Kinetic Energy:                   3.1534692043 H           85.8103 eV
Total MD Energy:                   -24.9408395524 H         -678.6748 eV
Pressure:                            0.159798E-02 au     0.470141E+11 Pa
Gibbs free energy including KE:    -24.9408395524 H         -678.6748 eV

--------------------------------------------------------------------------------

***  Geometry step: 38

 iSCC Total electronic   Diff electronic      SCC error    
    1   -0.27298526E+03    0.00000000E+00    0.46224773E-01
    2   -0.27298737E+03    0.13957895E+00    0.27345849E-01
    3   -0.27298746E+03   -0.21174343E-02    0.12928621E-01
    4   -0.27298768E+03   -0.83767106E-04    0.69985797E-02
    5   -0.27298770E+03   -0.22432020E-03    0.17620449E-02
    6   -0.27298771E+03   -0.21039171E-04    0.93341719E-03
    7   -0.27298772E+03   -0.94768134E-05    0.46298007E-03
    8   -0.27298772E+03   -0.11333923E-04    0.15367515E-03
    9   -0.27298773E+03   -0.24089965E-05    0.54294337E-04
   10   -0.27298773E+03   -0.53081135E-06    0.17050345E-04
   11   -0.27298773E+03   -0.53955694E-06    0.65773937E-05
   12   -0.27298773E+03   -0.15318898E-06    0.28283553E-05
   13   -0.27298773E+03    0.47941626E-07    0.11707862E-05
   14   -0.27298773E+03   -0.81710141E-08    0.40720893E-06

Total Energy:                      -27.8138528155 H         -756.8534 eV
Extrapolated to 0K:                -27.9345710133 H         -760.1384 eV
Total Mermin free energy:          -28.0552892111 H         -763.4233 eV
Force related energy:              -28.0552892111 H         -763.4233 eV

Volume:                              0.678057E+04 au^3   0.100478E+04 A^3
 TempProfile:          40   1.9000892071478339E-002
MD Temperature:                      0.0194036439 H         6127.1788 K
MD Kinetic Energy:                   3.1142848537 H           84.7440 eV
Total MD Energy:                   -24.9410043574 H         -678.6793 eV
Pressure:                            0.158535E-02 au     0.466427E+11 Pa
Gibbs free energy including KE:    -24.9410043574 H         -678.6793 eV

--------------------------------------------------------------------------------

***  Geometry step: 39

 iSCC Total electronic   Diff electronic      SCC error    
    1   -0.27289552E+03    0.00000000E+00    0.51303736E-01
    2   -0.27289756E+03    0.92205628E-01    0.26195606E-01
    3   -0.27289772E+03   -0.20435335E-02    0.11742904E-01
    4   -0.27289798E+03   -0.15247433E-03    0.37734311E-02
    5   -0.27289801E+03   -0.26092169E-03    0.26658969E-02
    6   -0.27289802E+03   -0.29287493E-04    0.14436732E-02
    7   -0.27289803E+03   -0.15235027E-04    0.41967632E-03
    8   -0.27289804E+03   -0.11760590E-04    0.15975053E-03
    9   -0.27289804E+03   -0.33107896E-05    0.61176506E-04
   10   -0.27289804E+03   -0.89374208E-06    0.20536554E-04
   11   -0.27289804E+03   -0.62034724E-06    0.75997224E-05
   12   -0.27289804E+03   -0.15978418E-06    0.26681239E-05
   13   -0.27289804E+03    0.50415849E-07    0.99784352E-06

Total Energy:                      -27.7627751674 H         -755.4635 eV
Extrapolated to 0K:                -27.8878271569 H         -758.8664 eV
Total Mermin free energy:          -28.0128791464 H         -762.2692 eV
Force related energy:              -28.0128791464 H         -762.2692 eV

Volume:                              0.678057E+04 au^3   0.100478E+04 A^3
 TempProfile:          41   1.9000892071478339E-002
MD Temperature:                      0.0191368845 H         6042.9429 K
MD Kinetic Energy:                   3.0714699554 H           83.5789 eV
Total MD Energy:                   -24.9414091910 H         -678.6903 eV
Pressure:                            0.158195E-02 au     0.465425E+11 Pa
Gibbs free energy including KE:    -24.9414091910 H         -678.6903 eV

--------------------------------------------------------------------------------

***  Geometry step: 40

 iSCC Total electronic   Diff electronic      SCC error    
    1   -0.27285045E+03    0.00000000E+00    0.52910621E-01
    2   -0.27285230E+03    0.47584043E-01    0.22299654E-01
    3   -0.27285252E+03   -0.18498134E-02    0.10858039E-01
    4   -0.27285279E+03   -0.21228499E-03    0.35182352E-02
    5   -0.27285286E+03   -0.27019973E-03    0.42397227E-02
    6   -0.27285287E+03   -0.72708949E-04    0.89678329E-03
    7   -0.27285288E+03   -0.62206680E-05    0.41831133E-03
    8   -0.27285288E+03   -0.14822479E-04    0.14176192E-03
    9   -0.27285289E+03   -0.29130188E-05    0.58163349E-04
   10   -0.27285289E+03   -0.15472318E-05    0.23190514E-04
   11   -0.27285289E+03   -0.76946310E-06    0.82862172E-05
   12   -0.27285289E+03   -0.15739494E-06    0.22594895E-05
   13   -0.27285289E+03    0.59308377E-07    0.89611413E-06

Total Energy:                      -27.7093482652 H         -754.0097 eV
Extrapolated to 0K:                -27.8388599490 H         -757.5339 eV
Total Mermin free energy:          -27.9683716328 H         -761.0581 eV
Force related energy:              -27.9683716328 H         -761.0581 eV

Volume:                              0.678057E+04 au^3   0.100478E+04 A^3
>> Charges saved for restart in charges.bin
 TempProfile:          42   1.9000892071478339E-002
MD Temperature:                      0.0188569187 H         5954.5369 K
MD Kinetic Energy:                   3.0265354544 H           82.3562 eV
Total MD Energy:                   -24.9418361784 H         -678.7019 eV
Pressure:                            0.158518E-02 au     0.466375E+11 Pa
Gibbs free energy including KE:    -24.9418361784 H         -678.7019 eV

--------------------------------------------------------------------------------

***  Geometry step: 41

 iSCC Total electronic   Diff electronic      SCC error    
    1   -0.27284464E+03    0.00000000E+00    0.50938391E-01
    2   -0.27284617E+03    0.82493167E-02    0.19931780E-01
    3   -0.27284642E+03   -0.15315359E-02    0.11151763E-01
    4   -0.27284669E+03   -0.25060336E-03    0.35641539E-02
    5   -0.27284678E+03   -0.26850942E-03    0.30468620E-02
    6   -0.27284678E+03   -0.94808464E-04    0.84029084E-03
    7   -0.27284680E+03   -0.25119015E-05    0.39145719E-03
    8   -0.27284680E+03   -0.11174704E-04    0.13923298E-03
    9   -0.27284680E+03   -0.21731862E-05    0.50611700E-04
   10   -0.27284680E+03   -0.26252778E-05    0.20507093E-04
   11   -0.27284680E+03   -0.66413952E-06    0.69590129E-05
   12   -0.27284680E+03   -0.69617840E-07    0.24186054E-05
   13   -0.27284680E+03    0.55310807E-07    0.10287301E-05
   14   -0.27284680E+03   -0.29606440E-07    0.43425520E-06

Total Energy:                      -27.6549620887 H         -752.5298 eV
Extrapolated to 0K:                -27.7887353699 H         -756.1700 eV
Total Mermin free energy:          -27.9225086512 H         -759.8101 eV
Force related energy:              -27.9225086512 H         -759.8101 eV

Volume:                              0.678057E+04 au^3   0.100478E+04 A^3
 TempProfile:          43   1.9000892071478339E-002
MD Temperature:                      0.0185689595 H         5863.6066 K
MD Kinetic Energy:                   2.9803179946 H           81.0986 eV
Total MD Energy:                   -24.9421906565 H         -678.7115 eV
Pressure:                            0.159460E-02 au     0.469147E+11 Pa
Gibbs free energy including KE:    -24.9421906565 H         -678.7115 eV

--------------------------------------------------------------------------------

***  Geometry step: 42

 iSCC Total electronic   Diff electronic      SCC error    
    1   -0.27286970E+03    0.00000000E+00    0.46203653E-01
    2   -0.27287084E+03   -0.22901962E-01    0.20001344E-01
    3   -0.27287112E+03   -0.11359000E-02    0.12137584E-01
    4   -0.27287136E+03   -0.28394465E-03    0.37691627E-02
    5   -0.27287145E+03   -0.24122228E-03    0.18200496E-02
    6   -0.27287145E+03   -0.85842431E-04    0.70578924E-03
    7   -0.27287145E+03    0.44392856E-05    0.35084230E-03
    8   -0.27287145E+03   -0.71466188E-05    0.15368763E-03
    9   -0.27287146E+03   -0.12064812E-05    0.49987025E-04
   10   -0.27287146E+03   -0.34880198E-05    0.22234919E-04
   11   -0.27287146E+03   -0.83313392E-06    0.85947403E-05
   12   -0.27287146E+03   -0.10125933E-06    0.26739850E-05
   13   -0.27287146E+03    0.44167734E-07    0.10167298E-05
   14   -0.27287146E+03   -0.23022324E-07    0.53701418E-06

Total Energy:                      -27.6023292080 H         -751.0976 eV
Extrapolated to 0K:                -27.7398759719 H         -754.8404 eV
Total Mermin free energy:          -27.8774227358 H         -758.5833 eV
Force related energy:              -27.8774227358 H         -758.5833 eV

Volume:                              0.678057E+04 au^3   0.100478E+04 A^3
 TempProfile:          44   1.9000892071478339E-002
MD Temperature:                      0.0182870456 H         5774.5854 K
MD Kinetic Energy:                   2.9350708258 H           79.8673 eV
Total MD Energy:                   -24.9423519099 H         -678.7159 eV
Pressure:                            0.160734E-02 au     0.472895E+11 Pa
Gibbs free energy including KE:    -24.9423519099 H         -678.7159 eV

--------------------------------------------------------------------------------

***  Geometry step: 43

 iSCC Total electronic   Diff electronic      SCC error    
    1   -0.27291482E+03    0.00000000E+00    0.41519641E-01
    2   -0.27291557E+03   -0.43364631E-01    0.20031464E-01
    3   -0.27291591E+03   -0.75022139E-03    0.14730093E-01
    4   -0.27291608E+03   -0.33261655E-03    0.41379306E-02
    5   -0.27291614E+03   -0.17599680E-03    0.16263935E-02
    6   -0.27291613E+03   -0.58732918E-04    0.70517006E-03
    7   -0.27291613E+03    0.14740637E-04    0.36506138E-03
    8   -0.27291613E+03   -0.44116659E-05    0.16516098E-03
    9   -0.27291613E+03    0.41797534E-08    0.49665413E-04
   10   -0.27291614E+03   -0.38955911E-05    0.22784739E-04
   11   -0.27291614E+03   -0.10698042E-05    0.10759601E-04
   12   -0.27291614E+03   -0.22947830E-06    0.29533351E-05
   13   -0.27291614E+03    0.21883238E-07    0.10088824E-05
   14   -0.27291614E+03   -0.48565312E-08    0.46377749E-06

Total Energy:                      -27.5565518345 H         -749.8519 eV
Extrapolated to 0K:                -27.6971531331 H         -753.6779 eV
Total Mermin free energy:          -27.8377544317 H         -757.5038 eV
Force related energy:              -27.8377544317 H         -757.5038 eV

Volume:                              0.678057E+04 au^3   0.100478E+04 A^3
 TempProfile:          45   1.9000892071478339E-002
MD Temperature:                      0.0180400403 H         5696.5874 K
MD Kinetic Energy:                   2.8954264660 H           78.7886 eV
Total MD Energy:                   -24.9423279657 H         -678.7153 eV
Pressure:                            0.162183E-02 au     0.477159E+11 Pa
Gibbs free energy including KE:    -24.9423279657 H         -678.7153 eV

--------------------------------------------------------------------------------

***  Geometry step: 44

 iSCC Total electronic   Diff electronic      SCC error    
    1   -0.27296817E+03    0.00000000E+00    0.46479961E-01
    2   -0.27296866E+03   -0.52036509E-01    0.23624969E-01
    3   -0.27296906E+03   -0.48303312E-03    0.17780540E-01
    4   -0.27296914E+03   -0.40139896E-03    0.54840408E-02
    5   -0.27296917E+03   -0.87670178E-04    0.15628990E-02
[...]
    1   -0.27147805E+03    0.00000000E+00    0.56201248E-01
    2   -0.27148267E+03    0.38165046E+00    0.53636332E-01
    3   -0.27148265E+03   -0.46185008E-02    0.49125376E-01
    4   -0.27148534E+03    0.23888527E-04    0.15412535E-01
    5   -0.27148601E+03   -0.26924661E-02    0.56689585E-02
    6   -0.27148585E+03   -0.67060558E-03    0.18773683E-02
    7   -0.27148590E+03    0.15654251E-03    0.77405302E-03
    8   -0.27148591E+03   -0.44272706E-04    0.44368040E-03
    9   -0.27148590E+03   -0.12749937E-04    0.21434483E-03
   10   -0.27148591E+03    0.86612282E-05    0.63199855E-04
   11   -0.27148591E+03   -0.40337491E-05    0.30334008E-04
   12   -0.27148591E+03    0.12505856E-05    0.12900777E-04
   13   -0.27148591E+03    0.61479273E-06    0.43923308E-05
   14   -0.27148591E+03   -0.11302865E-06    0.23992893E-05
   15   -0.27148591E+03    0.24473138E-07    0.12354042E-05
   16   -0.27148591E+03   -0.25113081E-07    0.42810338E-06

Total Energy:                      -27.2916761043 H         -742.6443 eV
Extrapolated to 0K:                -27.4828211267 H         -747.8456 eV
Total Mermin free energy:          -27.6739661492 H         -753.0469 eV
Force related energy:              -27.6739661492 H         -753.0469 eV

Volume:                              0.678057E+04 au^3   0.100478E+04 A^3
 TempProfile:         351   1.9000892071478339E-002
MD Temperature:                      0.0173561341 H         5480.6271 K
MD Kinetic Energy:                   2.7856595187 H           75.8017 eV
Total MD Energy:                   -24.8883066305 H         -677.2453 eV
Pressure:                            0.142553E-02 au     0.419404E+11 Pa
Gibbs free energy including KE:    -24.8883066305 H         -677.2453 eV

--------------------------------------------------------------------------------

***  Geometry step: 350

 iSCC Total electronic   Diff electronic      SCC error    
    1   -0.27113433E+03    0.00000000E+00    0.60283853E-01
    2   -0.27113976E+03    0.35157373E+00    0.42224898E-01
    3   -0.27113876E+03   -0.54299131E-02    0.51013242E-01
    4   -0.27114134E+03    0.10048305E-02    0.16793893E-01
    5   -0.27114208E+03   -0.25878670E-02    0.58898959E-02
    6   -0.27114194E+03   -0.73484044E-03    0.16530756E-02
    7   -0.27114194E+03    0.13606312E-03    0.82948840E-03
    8   -0.27114197E+03   -0.12847852E-05    0.45454693E-03
    9   -0.27114196E+03   -0.21741662E-04    0.21974708E-03
   10   -0.27114196E+03    0.10691166E-04    0.61714491E-04
   11   -0.27114196E+03   -0.42146957E-05    0.18040025E-04
   12   -0.27114196E+03    0.15087036E-05    0.62918478E-05
   13   -0.27114196E+03   -0.13067205E-06    0.35531934E-05
   14   -0.27114196E+03    0.59266085E-07    0.15590228E-05
   15   -0.27114196E+03   -0.25248653E-07    0.10065992E-05
   16   -0.27114196E+03   -0.15396893E-07    0.45385023E-06

Total Energy:                      -27.2554439428 H         -741.6584 eV
Extrapolated to 0K:                -27.4520848209 H         -747.0092 eV
Total Mermin free energy:          -27.6487256989 H         -752.3601 eV
Force related energy:              -27.6487256989 H         -752.3601 eV

Volume:                              0.678057E+04 au^3   0.100478E+04 A^3
>> Charges saved for restart in charges.bin
 TempProfile:         352   1.9000892071478339E-002
MD Temperature:                      0.0172354491 H         5442.5179 K
MD Kinetic Energy:                   2.7662895865 H           75.2746 eV
Total MD Energy:                   -24.8824361124 H         -677.0855 eV
Pressure:                            0.137262E-02 au     0.403837E+11 Pa
Gibbs free energy including KE:    -24.8824361124 H         -677.0855 eV

--------------------------------------------------------------------------------

***  Geometry step: 351

 iSCC Total electronic   Diff electronic      SCC error    
    1   -0.27083375E+03    0.00000000E+00    0.62715611E-01
    2   -0.27083952E+03    0.30820384E+00    0.39869967E-01
    3   -0.27083806E+03   -0.57632962E-02    0.49537083E-01
    4   -0.27084024E+03    0.14549790E-02    0.19185193E-01
    5   -0.27084103E+03   -0.21749286E-02    0.55062970E-02
    6   -0.27084092E+03   -0.79233065E-03    0.16773221E-02
    7   -0.27084090E+03    0.10939540E-03    0.85590841E-03
    8   -0.27084092E+03    0.24631452E-04    0.46259581E-03
    9   -0.27084091E+03   -0.26548295E-04    0.21930235E-03
   10   -0.27084092E+03    0.10880245E-04    0.63315500E-04
   11   -0.27084092E+03   -0.39403261E-05    0.43310515E-04
   12   -0.27084091E+03    0.54266559E-06    0.16134675E-04
   13   -0.27084091E+03    0.41771057E-06    0.44073736E-05
   14   -0.27084091E+03   -0.67682890E-07    0.20567194E-05
   15   -0.27084091E+03    0.20639447E-07    0.98584838E-06

Total Energy:                      -27.2179658571 H         -740.6385 eV
Extrapolated to 0K:                -27.4198878943 H         -746.1331 eV
Total Mermin free energy:          -27.6218099316 H         -751.6277 eV
Force related energy:              -27.6218099316 H         -751.6277 eV

Volume:                              0.678057E+04 au^3   0.100478E+04 A^3
 TempProfile:         353   1.9000892071478339E-002
MD Temperature:                      0.0171052172 H         5401.3939 K
MD Kinetic Energy:                   2.7453873526 H           74.7058 eV
Total MD Energy:                   -24.8764225789 H         -676.9219 eV
Pressure:                            0.132573E-02 au     0.390043E+11 Pa
Gibbs free energy including KE:    -24.8764225789 H         -676.9219 eV

--------------------------------------------------------------------------------

***  Geometry step: 352

 iSCC Total electronic   Diff electronic      SCC error    
    1   -0.27058637E+03    0.00000000E+00    0.63441470E-01
    2   -0.27059205E+03    0.25454802E+00    0.36378348E-01
    3   -0.27059055E+03   -0.56843674E-02    0.45335480E-01
    4   -0.27059214E+03    0.15052838E-02    0.22516447E-01
    5   -0.27059298E+03   -0.15980769E-02    0.56562815E-02
    6   -0.27059290E+03   -0.83652432E-03    0.18017894E-02
    7   -0.27059286E+03    0.79373697E-04    0.87226100E-03
    8   -0.27059289E+03    0.42132588E-04    0.46948355E-03
    9   -0.27059288E+03   -0.29143314E-04    0.22074783E-03
   10   -0.27059288E+03    0.10753495E-04    0.79655270E-04
   11   -0.27059288E+03   -0.21704709E-05    0.40693880E-04
   12   -0.27059288E+03   -0.11730074E-05    0.15182307E-04
   13   -0.27059288E+03    0.66408580E-06    0.51819412E-05
   14   -0.27059288E+03   -0.54322811E-07    0.22381096E-05
   15   -0.27059288E+03    0.25888198E-08    0.10989170E-05
   16   -0.27059288E+03   -0.38594123E-07    0.39782010E-06

Total Energy:                      -27.1801405881 H         -739.6093 eV
Extrapolated to 0K:                -27.3868745376 H         -745.2348 eV
Total Mermin free energy:          -27.5936084870 H         -750.8603 eV
Force related energy:              -27.5936084870 H         -750.8603 eV

Volume:                              0.678057E+04 au^3   0.100478E+04 A^3
 TempProfile:         354   1.9000892071478339E-002
MD Temperature:                      0.0169676179 H         5357.9436 K
MD Kinetic Energy:                   2.7233026768 H           74.1048 eV
Total MD Energy:                   -24.8703058102 H         -676.7555 eV
Pressure:                            0.128702E-02 au     0.378655E+11 Pa
Gibbs free energy including KE:    -24.8703058102 H         -676.7555 eV

--------------------------------------------------------------------------------

***  Geometry step: 353

 iSCC Total electronic   Diff electronic      SCC error    
    1   -0.27039876E+03    0.00000000E+00    0.62564014E-01
    2   -0.27040398E+03    0.19411514E+00    0.31656429E-01
    3   -0.27040268E+03   -0.52197090E-02    0.38494789E-01
    4   -0.27040365E+03    0.13005918E-02    0.26180844E-01
    5   -0.27040448E+03   -0.96860027E-03    0.74554929E-02
    6   -0.27040444E+03   -0.83051990E-03    0.18767212E-02
    7   -0.27040439E+03    0.45780912E-04    0.87709528E-03
    8   -0.27040441E+03    0.51979268E-04    0.47997946E-03
    9   -0.27040441E+03   -0.29539788E-04    0.22910903E-03
   10   -0.27040440E+03    0.88499786E-05    0.99054660E-04
   11   -0.27040441E+03    0.12057046E-05    0.40251316E-04
   12   -0.27040441E+03   -0.30824676E-05    0.11407991E-04
   13   -0.27040441E+03    0.58732570E-06    0.47793661E-05
   14   -0.27040441E+03   -0.89521393E-07    0.24941624E-05
   15   -0.27040441E+03    0.24459609E-07    0.11215024E-05
   16   -0.27040441E+03   -0.53027975E-07    0.38191754E-06

Total Energy:                      -27.1454156201 H         -738.6643 eV
Extrapolated to 0K:                -27.3562356879 H         -744.4010 eV
Total Mermin free energy:          -27.5670557557 H         -750.1378 eV
Force related energy:              -27.5670557557 H         -750.1378 eV

Volume:                              0.678057E+04 au^3   0.100478E+04 A^3
 TempProfile:         355   1.9000892071478339E-002
MD Temperature:                      0.0168408081 H         5317.9003 K
MD Kinetic Energy:                   2.7029497040 H           73.5510 eV
Total MD Energy:                   -24.8641060517 H         -676.5868 eV
Pressure:                            0.125965E-02 au     0.370603E+11 Pa
Gibbs free energy including KE:    -24.8641060517 H         -676.5868 eV

--------------------------------------------------------------------------------

***  Geometry step: 354

 iSCC Total electronic   Diff electronic      SCC error    
    1   -0.27027436E+03    0.00000000E+00    0.66441112E-01
    2   -0.27027874E+03    0.13004806E+00    0.26366230E-01
    3   -0.27027779E+03   -0.43814193E-02    0.28945806E-01
    4   -0.27027824E+03    0.95550335E-03    0.27544791E-01
    5   -0.27027891E+03   -0.45180888E-03    0.97483472E-02
    6   -0.27027891E+03   -0.67101649E-03    0.18939719E-02
    7   -0.27027886E+03   -0.49600652E-06    0.11382969E-02
    8   -0.27027889E+03    0.49516957E-04    0.50050171E-03
    9   -0.27027888E+03   -0.26353840E-04    0.22499870E-03
   10   -0.27027888E+03    0.42764545E-05    0.96542763E-04
   11   -0.27027888E+03    0.35747211E-05    0.39949360E-04
   12   -0.27027888E+03   -0.44013290E-05    0.11991086E-04
   13   -0.27027888E+03    0.68034376E-06    0.41129635E-05
   14   -0.27027888E+03   -0.10490231E-06    0.26257321E-05
   15   -0.27027888E+03    0.29956652E-07    0.92778403E-06

Total Energy:                      -27.1185660456 H         -737.9337 eV
Extrapolated to 0K:                -27.3325570714 H         -743.7567 eV
Total Mermin free energy:          -27.5465480972 H         -749.5797 eV
Force related energy:              -27.5465480972 H         -749.5797 eV

Volume:                              0.678057E+04 au^3   0.100478E+04 A^3
 TempProfile:         356   1.9000892071478339E-002
MD Temperature:                      0.0167514056 H         5289.6692 K
MD Kinetic Energy:                   2.6886006015 H           73.1605 eV
Total MD Energy:                   -24.8579474957 H         -676.4192 eV
Pressure:                            0.124386E-02 au     0.365956E+11 Pa
Gibbs free energy including KE:    -24.8579474957 H         -676.4192 eV

--------------------------------------------------------------------------------

***  Geometry step: 355

 iSCC Total electronic   Diff electronic      SCC error    
    1   -0.27021427E+03    0.00000000E+00    0.69493650E-01
    2   -0.27021753E+03    0.64610522E-01    0.24312762E-01
    3   -0.27021695E+03   -0.32549498E-02    0.22560822E-01
    4   -0.27021726E+03    0.57799673E-03    0.19536802E-01
    5   -0.27021742E+03   -0.31178204E-03    0.13702161E-01
    6   -0.27021752E+03   -0.16366606E-03    0.18910237E-02
    7   -0.27021749E+03   -0.95226464E-04    0.14030489E-02
    8   -0.27021751E+03    0.28894409E-04    0.50435343E-03
    9   -0.27021751E+03   -0.18438404E-04    0.20880175E-03
   10   -0.27021751E+03    0.13474649E-05    0.78789653E-04
   11   -0.27021751E+03    0.10280127E-05    0.31465427E-04
   12   -0.27021751E+03   -0.37493904E-05    0.12326262E-04
   13   -0.27021751E+03    0.15694554E-05    0.53490017E-05
   14   -0.27021751E+03   -0.35647327E-06    0.25668441E-05
   15   -0.27021751E+03    0.61798971E-07    0.86397380E-06

Total Energy:                      -27.1036853230 H         -737.5288 eV
Extrapolated to 0K:                -27.3198300965 H         -743.4104 eV
Total Mermin free energy:          -27.5359748701 H         -749.2920 eV
Force related energy:              -27.5359748701 H         -749.2920 eV

Volume:                              0.678057E+04 au^3   0.100478E+04 A^3
>> Charges saved for restart in charges.bin
 TempProfile:         357   1.9000892071478339E-002
MD Temperature:                      0.0167230237 H         5280.7069 K
MD Kinetic Energy:                   2.6840453046 H           73.0366 eV
Total MD Energy:                   -24.8519295655 H         -676.2554 eV
Pressure:                            0.124069E-02 au     0.365024E+11 Pa
Gibbs free energy including KE:    -24.8519295655 H         -676.2554 eV

--------------------------------------------------------------------------------

***  Geometry step: 356

 iSCC Total electronic   Diff electronic      SCC error    
    1   -0.27021857E+03    0.00000000E+00    0.70678685E-01
    2   -0.27022057E+03   -0.10575285E-02    0.22918194E-01
    3   -0.27022031E+03   -0.20029091E-02    0.23536412E-01
    4   -0.27022058E+03    0.25848966E-03    0.68148515E-02
    5   -0.27022044E+03   -0.27067068E-03    0.48910871E-02
    6   -0.27022048E+03    0.13787347E-03    0.62981452E-02
    7   -0.27022050E+03   -0.41661112E-04    0.11847401E-02
    8   -0.27022051E+03   -0.16162804E-04    0.48885727E-03
    9   -0.27022050E+03   -0.75726994E-05    0.19431433E-03
   10   -0.27022051E+03    0.38349082E-05    0.83499010E-04
   11   -0.27022051E+03   -0.78065073E-05    0.32057212E-04
   12   -0.27022051E+03    0.36328472E-05    0.15634134E-04
   13   -0.27022051E+03   -0.15890366E-05    0.59387319E-05
   14   -0.27022051E+03    0.36771115E-06    0.25334015E-05
   15   -0.27022051E+03   -0.75912567E-07    0.11264818E-05
   16   -0.27022051E+03    0.34451773E-07    0.43582775E-06

Total Energy:                      -27.1027427032 H         -737.5032 eV
Extrapolated to 0K:                -27.3199866253 H         -743.4147 eV
Total Mermin free energy:          -27.5372305473 H         -749.3262 eV
Force related energy:              -27.5372305473 H         -749.3262 eV

Volume:                              0.678057E+04 au^3   0.100478E+04 A^3
 TempProfile:         358   1.9000892071478339E-002
MD Temperature:                      0.0167679934 H         5294.9072 K
MD Kinetic Energy:                   2.6912629402 H           73.2330 eV
Total MD Energy:                   -24.8459676071 H         -676.0932 eV
Pressure:                            0.124804E-02 au     0.367187E+11 Pa
Gibbs free energy including KE:    -24.8459676071 H         -676.0932 eV

--------------------------------------------------------------------------------

***  Geometry step: 357

 iSCC Total electronic   Diff electronic      SCC error    
    1   -0.27028710E+03    0.00000000E+00    0.70170095E-01
    2   -0.27028790E+03   -0.66590624E-01    0.28777714E-01
    3   -0.27028787E+03   -0.80123714E-03    0.23190033E-01
    4   -0.27028774E+03    0.32249684E-04    0.21735926E-01
    5   -0.27028778E+03    0.13425598E-03    0.12690114E-01
    6   -0.27028783E+03   -0.41969652E-04    0.17541773E-02
    7   -0.27028789E+03   -0.55370156E-04    0.12755445E-02
    8   -0.27028789E+03   -0.61517245E-04    0.53444872E-03
    9   -0.27028788E+03    0.64326115E-05    0.17835231E-03
   10   -0.27028789E+03    0.40283085E-05    0.85550643E-04
   11   -0.27028789E+03   -0.10630130E-04    0.31114676E-04
   12   -0.27028789E+03    0.36633102E-05    0.17296738E-04
   13   -0.27028789E+03   -0.12494875E-05    0.62790644E-05
   14   -0.27028789E+03    0.28663942E-06    0.30055665E-05
   15   -0.27028789E+03   -0.68742452E-07    0.14535454E-05
   16   -0.27028789E+03    0.63229720E-07    0.46885813E-06

Total Energy:                      -27.1154968858 H         -737.8502 eV
Extrapolated to 0K:                -27.3327913790 H         -743.7631 eV
Total Mermin free energy:          -27.5500858722 H         -749.6760 eV
Force related energy:              -27.5500858722 H         -749.6760 eV

Volume:                              0.678057E+04 au^3   0.100478E+04 A^3
 TempProfile:         359   1.9000892071478339E-002
MD Temperature:                      0.0168836342 H         5331.4237 K
MD Kinetic Energy:                   2.7098232947 H           73.7380 eV
Total MD Energy:                   -24.8402625775 H         -675.9379 eV
Pressure:                            0.126708E-02 au     0.372788E+11 Pa
Gibbs free energy including KE:    -24.8402625775 H         -675.9379 eV

--------------------------------------------------------------------------------

***  Geometry step: 358

 iSCC Total electronic   Diff electronic      SCC error    
    1   -0.27041952E+03    0.00000000E+00    0.68230388E-01
    2   -0.27041930E+03   -0.13163203E+00    0.33894520E-01
    3   -0.27041943E+03    0.22285507E-03    0.21570881E-01
    4   -0.27041904E+03   -0.12697629E-03    0.30787477E-01
    5   -0.27041931E+03    0.38770229E-03    0.91221302E-02
    6   -0.27041931E+03   -0.27138983E-03    0.17093213E-02
    7   -0.27041940E+03    0.10977404E-05    0.10122849E-02
    8   -0.27041939E+03   -0.93485194E-04    0.56010981E-03
    9   -0.27041939E+03    0.13957206E-04    0.21618535E-03
   10   -0.27041940E+03    0.32320689E-05    0.92305243E-04
   11   -0.27041939E+03   -0.10350108E-04    0.34177407E-04
   12   -0.27041940E+03    0.27366125E-05    0.16042502E-04
   13   -0.27041940E+03   -0.10624531E-05    0.63181750E-05
   14   -0.27041940E+03    0.24580737E-06    0.35311267E-05
   15   -0.27041940E+03   -0.79687823E-07    0.17038911E-05
   16   -0.27041940E+03    0.65768518E-07    0.57934478E-06

Total Energy:                      -27.1382988654 H         -738.4707 eV
Extrapolated to 0K:                -27.3546477740 H         -744.3578 eV
Total Mermin free energy:          -27.5709966827 H         -750.2450 eV
Force related energy:              -27.5709966827 H         -750.2450 eV

Volume:                              0.678057E+04 au^3   0.100478E+04 A^3
 TempProfile:         360   1.9000892071478339E-002
MD Temperature:                      0.0170494433 H         5383.7820 K
MD Kinetic Energy:                   2.7364356509 H           74.4622 eV
Total MD Energy:                   -24.8345610318 H         -675.7828 eV
Pressure:                            0.129645E-02 au     0.381428E+11 Pa
Gibbs free energy including KE:    -24.8345610318 H         -675.7828 eV

--------------------------------------------------------------------------------

***  Geometry step: 359

 iSCC Total electronic   Diff electronic      SCC error    
    1   -0.27061470E+03    0.00000000E+00    0.65125878E-01
    2   -0.27061368E+03   -0.19530079E+00    0.36857835E-01
    3   -0.27061393E+03    0.10171975E-02    0.22118682E-01
    4   -0.27061354E+03   -0.25334540E-03    0.33662967E-01
    5   -0.27061382E+03    0.39509779E-03    0.79539146E-02
    6   -0.27061381E+03   -0.28441239E-03    0.22732426E-02
    7   -0.27061392E+03    0.15563814E-04    0.10661433E-02
    8   -0.27061390E+03   -0.11700058E-03    0.55100267E-03
    9   -0.27061390E+03    0.18070127E-04    0.26301806E-03
   10   -0.27061391E+03    0.24235652E-05    0.95226870E-04
   11   -0.27061391E+03   -0.84464779E-05    0.37367716E-04
   12   -0.27061391E+03    0.20762573E-05    0.14144710E-04
   13   -0.27061391E+03   -0.89400618E-06    0.58035955E-05
   14   -0.27061391E+03    0.21535834E-06    0.33368105E-05
   15   -0.27061391E+03   -0.95800260E-07    0.15475735E-05
   16   -0.27061391E+03    0.55340024E-07    0.51774592E-06
